 Entering Gaussian System, Link 0=g16
 Input=aceton.com
 Output=aceton.log
 Initial command:
 /usr/local//g16/l1.exe "/home/monty/scratch/Gau-14931.inp" -scrdir="/home/monty/scratch/"
 Entering Link 1 = /usr/local//g16/l1.exe PID=     14937.
  
 Copyright (c) 1988-2019, Gaussian, Inc.  All Rights Reserved.
  
 This is part of the Gaussian(R) 16 program.  It is based on
 the Gaussian(R) 09 system (copyright 2009, Gaussian, Inc.),
 the Gaussian(R) 03 system (copyright 2003, Gaussian, Inc.),
 the Gaussian(R) 98 system (copyright 1998, Gaussian, Inc.),
 the Gaussian(R) 94 system (copyright 1995, Gaussian, Inc.),
 the Gaussian 92(TM) system (copyright 1992, Gaussian, Inc.),
 the Gaussian 90(TM) system (copyright 1990, Gaussian, Inc.),
 the Gaussian 88(TM) system (copyright 1988, Gaussian, Inc.),
 the Gaussian 86(TM) system (copyright 1986, Carnegie Mellon
 University), and the Gaussian 82(TM) system (copyright 1983,
 Carnegie Mellon University). Gaussian is a federally registered
 trademark of Gaussian, Inc.
  
 This software contains proprietary and confidential information,
 including trade secrets, belonging to Gaussian, Inc.
  
 This software is provided under written license and may be
 used, copied, transmitted, or stored only in accord with that
 written license.
  
 The following legend is applicable only to US Government
 contracts under FAR:
  
                    RESTRICTED RIGHTS LEGEND
  
 Use, reproduction and disclosure by the US Government is
 subject to restrictions as set forth in subparagraphs (a)
 and (c) of the Commercial Computer Software - Restricted
 Rights clause in FAR 52.227-19.
  
 Gaussian, Inc.
 340 Quinnipiac St., Bldg. 40, Wallingford CT 06492
  
  
 ---------------------------------------------------------------
 Warning -- This program may not be used in any manner that
 competes with the business of Gaussian, Inc. or will provide
 assistance to any competitor of Gaussian, Inc.  The licensee
 of this program is prohibited from giving any competitor of
 Gaussian, Inc. access to this program.  By using this program,
 the user acknowledges that Gaussian, Inc. is engaged in the
 business of creating and licensing software in the field of
 computational chemistry and represents and warrants to the
 licensee that it is not a competitor of Gaussian, Inc. and that
 it will not use this program in any manner prohibited above.
 ---------------------------------------------------------------
  

 Cite this work as:
 Gaussian 16, Revision C.01,
 M. J. Frisch, G. W. Trucks, H. B. Schlegel, G. E. Scuseria, 
 M. A. Robb, J. R. Cheeseman, G. Scalmani, V. Barone, 
 G. A. Petersson, H. Nakatsuji, X. Li, M. Caricato, A. V. Marenich, 
 J. Bloino, B. G. Janesko, R. Gomperts, B. Mennucci, H. P. Hratchian, 
 J. V. Ortiz, A. F. Izmaylov, J. L. Sonnenberg, D. Williams-Young, 
 F. Ding, F. Lipparini, F. Egidi, J. Goings, B. Peng, A. Petrone, 
 T. Henderson, D. Ranasinghe, V. G. Zakrzewski, J. Gao, N. Rega, 
 G. Zheng, W. Liang, M. Hada, M. Ehara, K. Toyota, R. Fukuda, 
 J. Hasegawa, M. Ishida, T. Nakajima, Y. Honda, O. Kitao, H. Nakai, 
 T. Vreven, K. Throssell, J. A. Montgomery, Jr., J. E. Peralta, 
 F. Ogliaro, M. J. Bearpark, J. J. Heyd, E. N. Brothers, K. N. Kudin, 
 V. N. Staroverov, T. A. Keith, R. Kobayashi, J. Normand, 
 K. Raghavachari, A. P. Rendell, J. C. Burant, S. S. Iyengar, 
 J. Tomasi, M. Cossi, J. M. Millam, M. Klene, C. Adamo, R. Cammi, 
 J. W. Ochterski, R. L. Martin, K. Morokuma, O. Farkas, 
 J. B. Foresman, and D. J. Fox, Gaussian, Inc., Wallingford CT, 2019.
 
 ******************************************
 Gaussian 16:  ES64L-G16RevC.01  3-Jul-2019
                29-Dec-2023 
 ******************************************
 %mem=256MW
 %nprocshared=4
 Will use up to    4 processors via shared memory.
 --------------------------------------------------------
 # opt freq b97d3/def2tzvp/auto EmpiricalDispersion=GD3BJ
 --------------------------------------------------------
 1/18=20,19=15,26=3,38=1/1,3;
 2/9=110,12=2,17=6,18=5,40=1/2;
 3/5=44,7=101,11=2,25=1,30=1,71=1,74=-59,82=28,124=41/1,2,3;
 4//1;
 5/5=2,38=5/2;
 6/7=2,8=2,9=2,10=2,28=1/1;
 7//1,2,3,16;
 1/18=20,19=15,26=3/3(2);
 2/9=110/2;
 99//99;
 2/9=110/2;
 3/5=44,7=101,11=2,25=1,30=1,71=1,74=-59,82=28,124=41/1,2,3;
 4/5=5,16=3,69=1/1;
 5/5=2,38=5/2;
 7//1,2,3,16;
 1/18=20,19=15,26=3/3(-5);
 2/9=110/2;
 6/7=2,8=2,9=2,10=2,19=2,28=1/1;
 99/9=1/99;
 ---------
 aceton C2
 ---------
 Symbolic Z-matrix:
 Charge =  0 Multiplicity = 1
 C                    -0.00404   1.28903  -0.61547 
 C                     0.        0.        0.18831 
 O                     0.        0.        1.40357 
 C                     0.00404  -1.28903  -0.61547 
 H                    -0.16728   2.14984   0.05356 
 H                    -0.78066   1.25423  -1.40757 
 H                     0.97824   1.40047  -1.13237 
 H                    -0.97824  -1.40047  -1.13237 
 H                     0.16728  -2.14984   0.05356 
 H                     0.78066  -1.25423  -1.40757 
 

 GradGradGradGradGradGradGradGradGradGradGradGradGradGradGradGradGradGrad
 Berny optimization.
 Initialization pass.
                           ----------------------------
                           !    Initial Parameters    !
                           ! (Angstroms and Degrees)  !
 --------------------------                            --------------------------
 ! Name  Definition              Value          Derivative Info.                !
 --------------------------------------------------------------------------------
 ! R1    R(1,2)                  1.5191         estimate D2E/DX2                !
 ! R2    R(1,5)                  1.1024         estimate D2E/DX2                !
 ! R3    R(1,6)                  1.1099         estimate D2E/DX2                !
 ! R4    R(1,7)                  1.1156         estimate D2E/DX2                !
 ! R5    R(2,3)                  1.2153         estimate D2E/DX2                !
 ! R6    R(2,4)                  1.5191         estimate D2E/DX2                !
 ! R7    R(4,8)                  1.1156         estimate D2E/DX2                !
 ! R8    R(4,9)                  1.1024         estimate D2E/DX2                !
 ! R9    R(4,10)                 1.1099         estimate D2E/DX2                !
 ! A1    A(2,1,5)              109.991          estimate D2E/DX2                !
 ! A2    A(2,1,6)              110.6638         estimate D2E/DX2                !
 ! A3    A(2,1,7)              109.1229         estimate D2E/DX2                !
 ! A4    A(5,1,6)              110.7324         estimate D2E/DX2                !
 ! A5    A(5,1,7)              109.4868         estimate D2E/DX2                !
 ! A6    A(6,1,7)              106.7733         estimate D2E/DX2                !
 ! A7    A(1,2,3)              121.9458         estimate D2E/DX2                !
 ! A8    A(1,2,4)              116.1083         estimate D2E/DX2                !
 ! A9    A(3,2,4)              121.9458         estimate D2E/DX2                !
 ! A10   A(2,4,8)              109.1229         estimate D2E/DX2                !
 ! A11   A(2,4,9)              109.991          estimate D2E/DX2                !
 ! A12   A(2,4,10)             110.6638         estimate D2E/DX2                !
 ! A13   A(8,4,9)              109.4868         estimate D2E/DX2                !
 ! A14   A(8,4,10)             106.7733         estimate D2E/DX2                !
 ! A15   A(9,4,10)             110.7324         estimate D2E/DX2                !
 ! D1    D(5,1,2,3)             -8.915          estimate D2E/DX2                !
 ! D2    D(5,1,2,4)            171.085          estimate D2E/DX2                !
 ! D3    D(6,1,2,3)           -131.5854         estimate D2E/DX2                !
 ! D4    D(6,1,2,4)             48.4146         estimate D2E/DX2                !
 ! D5    D(7,1,2,3)            111.2073         estimate D2E/DX2                !
 ! D6    D(7,1,2,4)            -68.7927         estimate D2E/DX2                !
 ! D7    D(1,2,4,8)            -68.7927         estimate D2E/DX2                !
 ! D8    D(1,2,4,9)            171.085          estimate D2E/DX2                !
 ! D9    D(1,2,4,10)            48.4146         estimate D2E/DX2                !
 ! D10   D(3,2,4,8)            111.2073         estimate D2E/DX2                !
 ! D11   D(3,2,4,9)             -8.915          estimate D2E/DX2                !
 ! D12   D(3,2,4,10)          -131.5854         estimate D2E/DX2                !
 --------------------------------------------------------------------------------
 Trust Radius=3.00D-01 FncErr=1.00D-07 GrdErr=1.00D-06 EigMax=2.50D+02 EigMin=1.00D-04
 Number of steps in this run=     46 maximum allowed number of steps=    100.
 GradGradGradGradGradGradGradGradGradGradGradGradGradGradGradGradGradGrad

                          Input orientation:                          
 ---------------------------------------------------------------------
 Center     Atomic      Atomic             Coordinates (Angstroms)
 Number     Number       Type             X           Y           Z
 ---------------------------------------------------------------------
      1          6           0       -0.004037    1.289026   -0.615472
      2          6           0        0.000000    0.000000    0.188311
      3          8           0        0.000000    0.000000    1.403572
      4          6           0        0.004037   -1.289026   -0.615472
      5          1           0       -0.167277    2.149840    0.053561
      6          1           0       -0.780661    1.254229   -1.407571
      7          1           0        0.978242    1.400466   -1.132374
      8          1           0       -0.978242   -1.400466   -1.132374
      9          1           0        0.167277   -2.149840    0.053561
     10          1           0        0.780661   -1.254229   -1.407571
 ---------------------------------------------------------------------
                    Distance matrix (angstroms):
                    1          2          3          4          5
     1  C    0.000000
     2  C    1.519102   0.000000
     3  O    2.395442   1.215261   0.000000
     4  C    2.578064   1.519102   2.395442   0.000000
     5  H    1.102386   2.160544   2.544076   3.507528   0.000000
     6  H    1.109854   2.174710   3.175697   2.776926   1.820239
     7  H    1.115562   2.159276   3.057660   2.906824   1.811137
     8  H    2.906824   2.159276   3.057660   1.115562   3.829984
     9  H    3.507528   2.160544   2.544076   1.102386   4.312676
    10  H    2.776926   2.174710   3.175697   1.109854   3.823765
                    6          7          8          9         10
     6  H    0.000000
     7  H    1.786298   0.000000
     8  H    2.676224   3.416585   0.000000
     9  H    3.823765   3.829984   1.811137   0.000000
    10  H    2.954672   2.676224   1.786298   1.820239   0.000000
 Stoichiometry    C3H6O
 Framework group  C2[C2(CO),X(C2H6)]
 Deg. of freedom    12
 Full point group                 C2      NOp   2
 Largest Abelian subgroup         C2      NOp   2
 Largest concise Abelian subgroup C2      NOp   2
                         Standard orientation:                         
 ---------------------------------------------------------------------
 Center     Atomic      Atomic             Coordinates (Angstroms)
 Number     Number       Type             X           Y           Z
 ---------------------------------------------------------------------
      1          6           0        0.000000    1.289032   -0.615472
      2          6           0       -0.000000   -0.000000    0.188311
      3          8           0       -0.000000   -0.000000    1.403572
      4          6           0       -0.000000   -1.289032   -0.615472
      5          1           0       -0.160542    2.150354    0.053561
      6          1           0       -0.776729    1.256667   -1.407572
      7          1           0        0.982624    1.397395   -1.132374
      8          1           0       -0.982624   -1.397395   -1.132374
      9          1           0        0.160542   -2.150354    0.053561
     10          1           0        0.776729   -1.256667   -1.407572
 ---------------------------------------------------------------------
 Rotational constants (GHZ):          10.0260038           8.4891647           4.8823683
 Standard basis: def2TZVP (5D, 7F)
 There are    94 symmetry adapted cartesian basis functions of A   symmetry.
 There are    86 symmetry adapted cartesian basis functions of B   symmetry.
 There are    83 symmetry adapted basis functions of A   symmetry.
 There are    77 symmetry adapted basis functions of B   symmetry.
   160 basis functions,   252 primitive gaussians,   180 cartesian basis functions
    16 alpha electrons       16 beta electrons
       nuclear repulsion energy       118.7619151798 Hartrees.
 NAtoms=   10 NActive=   10 NUniq=    6 SFac= 2.78D+00 NAtFMM=   60 NAOKFM=F Big=F
 Integral buffers will be    131072 words long.
 Raffenetti 2 integral format.
 Two-electron integral symmetry is turned on.
 Nuclear repulsion after empirical dispersion term =      118.7442205770 Hartrees.
 Standard density basis: Auto (5D, 7F)
   734 Density fitting functions
 There are   734 symmetry adapted density basis functions of A   symmetry.
 One-electron integrals computed using PRISM.
   2 Symmetry operations used in ECPInt.
 ECPInt:  NShTT=    2346 NPrTT=    6892 LenC2=    2340 LenP2D=    5977.
 LDataN:  DoStor=T MaxTD1= 6 Len=  172
 NBasis=   160 RedAO= T EigKep=  4.18D-04  NBF=    83    77
 NBsUse=   160 1.00D-06 EigRej= -1.00D+00 NBFU=    83    77
 NBasis=      160 NBas6D=      180 NTT=       12880   NTT6D=    16290
 NDBShl=      110 NDBF=        734 NDBF6D=      928  NNucDB=        0
 IDenFi=        2 ISolve=        0 FullAP=F BlkAPC=T NucTyp=        0
 TolInv= 1.00D-06 TolIt=  1.00D-10 IR12=0.
 FoFCou: FMM=F IPFlag=           0 FMFlag=           0 FMFlg1=           0
         NFxFlg=           0 DoJE=F BraDBF=T KetDBF=T FulRan=T
         wScrn=  0.000000 ICntrl=       600 IOpCl=  3 I1Cent=           6 NGrid=           0
         NMat0=    1 NMatS0=    928 NMatT0=    0 NMatD0=    1 NMtDS0=    0 NMtDT0=    0
 Petite list used in FoFCou.
 DBF EigKep=  1.31D-06 EigRej=  7.82D-07
 NDBF=    734  NBFD=   734
 NRank=   724 NBFDU=   724
 S*AI*S=  7.31079225229    
 ExpMin= 9.52D-02 ExpMax= 2.70D+04 ExpMxC= 9.22D+02 IAcc=3 IRadAn=         5 AccDes= 0.00D+00
 Harris functional with IExCor= 3630 and IRadAn=       5 diagonalized for initial guess.
 HarFok:  IExCor= 3630 AccDes= 0.00D+00 IRadAn=         5 IDoV= 1 UseB2=F ITyADJ=14
 ICtDFT=  3500011 ScaDFX=  1.000000  1.000000  1.000000  1.000000
 FoFCou: FMM=F IPFlag=           0 FMFlag=      100000 FMFlg1=           0
         NFxFlg=           0 DoJE=T BraDBF=F KetDBF=T FulRan=T
         wScrn=  0.000000 ICntrl=       500 IOpCl=  0 I1Cent=   200000004 NGrid=           0
         NMat0=    1 NMatS0=      1 NMatT0=    0 NMatD0=    1 NMtDS0=    0 NMtDT0=    0
 Petite list used in FoFCou.
 Initial guess orbital symmetries:
       Occupied  (A) (B) (A) (A) (A) (A) (B) (A) (A) (B) (B) (A)
                 (A) (B) (B) (B)
       Virtual   (B) (A) (A) (B) (B) (A) (B) (A) (A) (B) (A) (A)
                 (B) (A) (B) (B) (B) (A) (A) (B) (B) (A) (A) (B)
                 (A) (B) (A) (B) (A) (B) (A) (B) (B) (A) (B) (A)
                 (A) (A) (A) (B) (B) (B) (A) (B) (A) (B) (A) (A)
                 (B) (A) (B) (A) (B) (A) (A) (B) (B) (A) (A) (B)
                 (B) (A) (B) (A) (B) (A) (B) (A) (B) (B) (A) (A)
                 (A) (A) (B) (A) (B) (B) (B) (B) (A) (A) (B) (A)
                 (B) (B) (B) (A) (A) (B) (B) (A) (A) (A) (B) (B)
                 (A) (B) (A) (A) (B) (B) (A) (B) (A) (A) (B) (A)
                 (B) (A) (A) (B) (A) (B) (A) (B) (A) (B) (B) (B)
                 (A) (B) (A) (A) (A) (B) (B) (A) (B) (B) (A) (A)
                 (B) (A) (A) (A) (B) (B) (B) (A) (B) (A) (A) (A)
 The electronic state of the initial guess is 1-A.
 Requested convergence on RMS density matrix=1.00D-08 within 128 cycles.
 Requested convergence on MAX density matrix=1.00D-06.
 Requested convergence on             energy=1.00D-06.
 No special actions if energy rises.
 FoFCou: FMM=F IPFlag=           0 FMFlag=      100000 FMFlg1=           0
         NFxFlg=           0 DoJE=T BraDBF=T KetDBF=F FulRan=T
         wScrn=  0.000000 ICntrl=       500 IOpCl=  0 I1Cent=           5 NGrid=           0
         NMat0=    1 NMatS0=      1 NMatT0=    0 NMatD0=    1 NMtDS0=    0 NMtDT0=    0
 Petite list used in FoFCou.
 EnCoef did   100 forward-backward iterations
 Initial convergence to 1.0D-05 achieved.  Increase integral accuracy.
 SCF Done:  E(RB97D3) =  -193.116547887     A.U. after   14 cycles
            NFock= 14  Conv=0.25D-08     -V/T= 2.0052

 **********************************************************************

            Population analysis using the SCF Density.

 **********************************************************************

 Orbital symmetries:
       Occupied  (A) (A) (B) (A) (A) (A) (B) (A) (B) (B) (A) (A)
                 (A) (B) (B) (B)
       Virtual   (B) (A) (B) (A) (B) (A) (B) (A) (A) (B) (A) (A)
                 (B) (A) (B) (B) (B) (A) (A) (B) (B) (A) (B) (A)
                 (A) (B) (A) (B) (A) (B) (A) (B) (B) (A) (B) (A)
                 (A) (A) (B) (A) (B) (B) (A) (B) (A) (B) (A) (A)
                 (B) (A) (B) (A) (B) (A) (B) (A) (B) (A) (A) (B)
                 (B) (A) (B) (A) (B) (A) (B) (A) (B) (B) (A) (A)
                 (A) (A) (B) (A) (B) (B) (B) (B) (A) (A) (B) (A)
                 (B) (B) (B) (A) (A) (B) (B) (A) (A) (A) (B) (B)
                 (A) (B) (A) (A) (B) (B) (A) (B) (A) (A) (B) (A)
                 (B) (A) (A) (B) (A) (B) (A) (B) (A) (B) (B) (B)
                 (A) (B) (A) (A) (A) (B) (B) (A) (B) (B) (A) (A)
                 (B) (A) (A) (A) (B) (B) (B) (A) (B) (A) (A) (A)
 The electronic state is 1-A.
 Alpha  occ. eigenvalues --  -18.73898  -9.99044  -9.91206  -9.91206  -0.95652
 Alpha  occ. eigenvalues --   -0.70081  -0.64411  -0.47854  -0.41390  -0.41074
 Alpha  occ. eigenvalues --   -0.40307  -0.36024  -0.35138  -0.33775  -0.31387
 Alpha  occ. eigenvalues --   -0.20770
 Alpha virt. eigenvalues --   -0.05547   0.01106   0.06304   0.07525   0.07960
 Alpha virt. eigenvalues --    0.09905   0.10652   0.10950   0.14792   0.15910
 Alpha virt. eigenvalues --    0.18806   0.20183   0.20398   0.26395   0.26506
 Alpha virt. eigenvalues --    0.28540   0.33514   0.34227   0.36274   0.36555
 Alpha virt. eigenvalues --    0.39810   0.40075   0.40817   0.41109   0.42050
 Alpha virt. eigenvalues --    0.43720   0.50480   0.52143   0.52548   0.56013
 Alpha virt. eigenvalues --    0.61451   0.63856   0.69102   0.75686   0.77800
 Alpha virt. eigenvalues --    0.79131   0.85557   0.89029   0.92044   0.92553
 Alpha virt. eigenvalues --    0.94586   0.99452   1.05191   1.05478   1.07639
 Alpha virt. eigenvalues --    1.16765   1.32334   1.34339   1.37876   1.42267
 Alpha virt. eigenvalues --    1.43087   1.44490   1.46203   1.46626   1.48438
 Alpha virt. eigenvalues --    1.48576   1.50711   1.55528   1.58057   1.61661
 Alpha virt. eigenvalues --    1.77057   1.78282   1.79152   1.86662   1.91848
 Alpha virt. eigenvalues --    1.93384   1.95030   1.99608   2.03037   2.07893
 Alpha virt. eigenvalues --    2.08330   2.10838   2.12142   2.22049   2.23880
 Alpha virt. eigenvalues --    2.25132   2.28293   2.35300   2.36965   2.41355
 Alpha virt. eigenvalues --    2.42257   2.45661   2.46115   2.54876   2.60052
 Alpha virt. eigenvalues --    2.65723   2.67163   2.70379   2.74584   2.81871
 Alpha virt. eigenvalues --    2.86952   2.87938   2.91068   2.97454   2.97807
 Alpha virt. eigenvalues --    2.98858   3.01211   3.03752   3.04546   3.13908
 Alpha virt. eigenvalues --    3.19266   3.20603   3.21126   3.26608   3.28020
 Alpha virt. eigenvalues --    3.30575   3.33062   3.38583   3.41296   3.42481
 Alpha virt. eigenvalues --    3.56274   3.64639   3.74768   3.75888   3.78770
 Alpha virt. eigenvalues --    3.84952   3.87400   3.87756   3.93983   4.17646
 Alpha virt. eigenvalues --    4.19476   4.24824   4.25757   4.30638   4.39756
 Alpha virt. eigenvalues --    4.51784   4.65279   4.67852   5.07375   5.07894
 Alpha virt. eigenvalues --    5.46804   5.55053   5.99742   6.18547   6.24200
 Alpha virt. eigenvalues --    6.36387   6.36954   6.67570   6.84982   6.92213
 Alpha virt. eigenvalues --   22.06207  22.06768  22.75751  43.57096
          Condensed to atoms (all electrons):
               1          2          3          4          5          6
     1  C    5.409225   0.263753  -0.133813  -0.307908   0.349535   0.329816
     2  C    0.263753   4.650273   0.728670   0.263753  -0.017252  -0.014694
     3  O   -0.133813   0.728670   7.766552  -0.133813   0.013618   0.004841
     4  C   -0.307908   0.263753  -0.133813   5.409225   0.018162   0.024915
     5  H    0.349535  -0.017252   0.013618   0.018162   0.538605  -0.013862
     6  H    0.329816  -0.014694   0.004841   0.024915  -0.013862   0.586290
     7  H    0.332658  -0.008660   0.003512   0.016326  -0.010508  -0.021794
     8  H    0.016326  -0.008660   0.003512   0.332658  -0.001053  -0.001806
     9  H    0.018162  -0.017252   0.013618   0.349535  -0.000754  -0.000664
    10  H    0.024915  -0.014694   0.004841   0.329816  -0.000664  -0.003630
               7          8          9         10
     1  C    0.332658   0.016326   0.018162   0.024915
     2  C   -0.008660  -0.008660  -0.017252  -0.014694
     3  O    0.003512   0.003512   0.013618   0.004841
     4  C    0.016326   0.332658   0.349535   0.329816
     5  H   -0.010508  -0.001053  -0.000754  -0.000664
     6  H   -0.021794  -0.001806  -0.000664  -0.003630
     7  H    0.575618  -0.000590  -0.001053  -0.001806
     8  H   -0.000590   0.575618  -0.010508  -0.021794
     9  H   -0.001053  -0.010508   0.538605  -0.013862
    10  H   -0.001806  -0.021794  -0.013862   0.586290
 Mulliken charges:
               1
     1  C   -0.302670
     2  C    0.174763
     3  O   -0.271539
     4  C   -0.302670
     5  H    0.124174
     6  H    0.110588
     7  H    0.116296
     8  H    0.116296
     9  H    0.124174
    10  H    0.110588
 Sum of Mulliken charges =  -0.00000
 Mulliken charges with hydrogens summed into heavy atoms:
               1
     1  C    0.048388
     2  C    0.174763
     3  O   -0.271539
     4  C    0.048388
 Electronic spatial extent (au):  <R**2>=            294.7809
 Charge=             -0.0000 electrons
 Dipole moment (field-independent basis, Debye):
    X=             -0.0000    Y=             -0.0000    Z=             -2.8817  Tot=              2.8817
 Quadrupole moment (field-independent basis, Debye-Ang):
   XX=            -24.2505   YY=            -23.9324   ZZ=            -28.9340
   XY=              0.0833   XZ=             -0.0000   YZ=              0.0000
 Traceless Quadrupole moment (field-independent basis, Debye-Ang):
   XX=              1.4552   YY=              1.7732   ZZ=             -3.2284
   XY=              0.0833   XZ=             -0.0000   YZ=              0.0000
 Octapole moment (field-independent basis, Debye-Ang**2):
  XXX=              0.0000  YYY=              0.0000  ZZZ=             -2.1047  XYY=             -0.0000
  XXY=              0.0000  XXZ=              0.1602  XZZ=              0.0000  YZZ=              0.0000
  YYZ=              2.5172  XYZ=             -0.3405
 Hexadecapole moment (field-independent basis, Debye-Ang**3):
 XXXX=            -37.9918 YYYY=           -201.1143 ZZZZ=           -155.9893 XXXY=              1.0045
 XXXZ=             -0.0000 YYYX=             -1.1335 YYYZ=             -0.0000 ZZZX=             -0.0000
 ZZZY=             -0.0000 XXYY=            -40.5174 XXZZ=            -28.2183 YYZZ=            -59.9281
 XXYZ=             -0.0000 YYXZ=             -0.0000 ZZXY=             -0.3204
 N-N= 1.187442205770D+02 E-N=-6.884263217969D+02  KE= 1.921186240072D+02
 Symmetry A    KE= 1.422621982241D+02
 Symmetry B    KE= 4.985642578311D+01
   2 Symmetry operations used in ECPInt.
 ECPInt:  NShTT=    2346 NPrTT=    6892 LenC2=    2340 LenP2D=    5977.
 LDataN:  DoStor=T MaxTD1= 7 Len=  274
 Calling FoFJK, ICntrl=      2527 FMM=F ISym2X=1 I1Cent= 4 IOpClX= 0 NMat=1 NMatS=1 NMatT=0.
 ***** Axes restored to original set *****
 -------------------------------------------------------------------
 Center     Atomic                   Forces (Hartrees/Bohr)
 Number     Number              X              Y              Z
 -------------------------------------------------------------------
      1        6           0.002387099    0.004431023   -0.005150334
      2        6          -0.000000000    0.000000000   -0.000301689
      3        8          -0.000000000   -0.000000000   -0.000005684
      4        6          -0.002387099   -0.004431023   -0.005150334
      5        1           0.000959650   -0.004809502   -0.004904125
      6        1           0.005627045    0.001048278    0.005603858
      7        1          -0.009137356   -0.000577508    0.004604287
      8        1           0.009137356    0.000577508    0.004604287
      9        1          -0.000959650    0.004809502   -0.004904125
     10        1          -0.005627045   -0.001048278    0.005603858
 -------------------------------------------------------------------
 Cartesian Forces:  Max     0.009137356 RMS     0.004236322

 GradGradGradGradGradGradGradGradGradGradGradGradGradGradGradGradGradGrad
 Berny optimization.
 FormGI is forming the generalized inverse of G from B-inverse, IUseBI=4.
 Internal  Forces:  Max     0.010236558 RMS     0.003489965
 Search for a local minimum.
 Step number   1 out of a maximum of   46
 All quantities printed in internal units (Hartrees-Bohrs-Radians)
 Mixed Optimization -- RFO/linear search
 Second derivative matrix not updated -- first step.
 ITU=  0
     Eigenvalues ---    0.00513   0.00513   0.00513   0.07155   0.07155
     Eigenvalues ---    0.07445   0.07445   0.16000   0.16000   0.16000
     Eigenvalues ---    0.16000   0.16000   0.16000   0.25000   0.25000
     Eigenvalues ---    0.30453   0.30453   0.32018   0.32018   0.32615
     Eigenvalues ---    0.32615   0.33420   0.33420   0.97514
 RFO step:  Lambda=-1.36742038D-03 EMin= 5.13263471D-03
 Linear search not attempted -- first point.
 Iteration  1 RMS(Cart)=  0.01158567 RMS(Int)=  0.00004577
 Iteration  2 RMS(Cart)=  0.00005839 RMS(Int)=  0.00000618
 Iteration  3 RMS(Cart)=  0.00000000 RMS(Int)=  0.00000618
 ClnCor:  largest displacement from symmetrization is 1.20D-11 for atom     8.
 Variable       Old X    -DE/DX   Delta X   Delta X   Delta X     New X
                                 (Linear)    (Quad)   (Total)
    R1        2.87069  -0.00000   0.00000  -0.00001  -0.00001   2.87068
    R2        2.08321  -0.00687   0.00000  -0.02048  -0.02048   2.06272
    R3        2.09732  -0.00797   0.00000  -0.02433  -0.02433   2.07299
    R4        2.10811  -0.01024   0.00000  -0.03184  -0.03184   2.07627
    R5        2.29651  -0.00001   0.00000  -0.00001  -0.00001   2.29650
    R6        2.87069  -0.00000   0.00000  -0.00001  -0.00001   2.87068
    R7        2.10811  -0.01024   0.00000  -0.03184  -0.03184   2.07627
    R8        2.08321  -0.00687   0.00000  -0.02048  -0.02048   2.06272
    R9        2.09732  -0.00797   0.00000  -0.02433  -0.02433   2.07299
    A1        1.91971   0.00101   0.00000   0.00616   0.00615   1.92586
    A2        1.93145   0.00082   0.00000   0.00509   0.00508   1.93653
    A3        1.90455   0.00038   0.00000   0.00245   0.00244   1.90700
    A4        1.93264  -0.00101   0.00000  -0.00644  -0.00645   1.92620
    A5        1.91091  -0.00071   0.00000  -0.00441  -0.00442   1.90648
    A6        1.86355  -0.00054   0.00000  -0.00314  -0.00315   1.86040
    A7        2.12836  -0.00007   0.00000  -0.00030  -0.00030   2.12806
    A8        2.02647   0.00015   0.00000   0.00059   0.00059   2.02707
    A9        2.12836  -0.00007   0.00000  -0.00030  -0.00030   2.12806
   A10        1.90455   0.00038   0.00000   0.00245   0.00244   1.90700
   A11        1.91971   0.00101   0.00000   0.00616   0.00615   1.92586
   A12        1.93145   0.00082   0.00000   0.00509   0.00508   1.93653
   A13        1.91091  -0.00071   0.00000  -0.00441  -0.00442   1.90648
   A14        1.86355  -0.00054   0.00000  -0.00314  -0.00315   1.86040
   A15        1.93264  -0.00101   0.00000  -0.00644  -0.00645   1.92620
    D1       -0.15560   0.00001   0.00000   0.00265   0.00265  -0.15294
    D2        2.98600   0.00001   0.00000   0.00265   0.00265   2.98865
    D3       -2.29660   0.00005   0.00000   0.00315   0.00315  -2.29345
    D4        0.84499   0.00005   0.00000   0.00315   0.00315   0.84814
    D5        1.94093  -0.00000   0.00000   0.00253   0.00253   1.94347
    D6       -1.20066  -0.00000   0.00000   0.00253   0.00253  -1.19813
    D7       -1.20066  -0.00000   0.00000   0.00253   0.00253  -1.19813
    D8        2.98600   0.00001   0.00000   0.00265   0.00265   2.98865
    D9        0.84499   0.00005   0.00000   0.00315   0.00315   0.84814
   D10        1.94093  -0.00000   0.00000   0.00253   0.00253   1.94347
   D11       -0.15560   0.00001   0.00000   0.00265   0.00265  -0.15294
   D12       -2.29660   0.00005   0.00000   0.00315   0.00315  -2.29345
         Item               Value     Threshold  Converged?
 Maximum Force            0.010237     0.000450     NO 
 RMS     Force            0.003490     0.000300     NO 
 Maximum Displacement     0.031954     0.001800     NO 
 RMS     Displacement     0.011572     0.001200     NO 
 Predicted change in Energy=-6.867353D-04
 GradGradGradGradGradGradGradGradGradGradGradGradGradGradGradGradGradGrad

                          Input orientation:                          
 ---------------------------------------------------------------------
 Center     Atomic      Atomic             Coordinates (Angstroms)
 Number     Number       Type             X           Y           Z
 ---------------------------------------------------------------------
      1          6           0       -0.004311    1.289260   -0.616002
      2          6           0       -0.000000    0.000000    0.187395
      3          8           0       -0.000000    0.000000    1.402653
      4          6           0        0.004311   -1.289260   -0.616002
      5          1           0       -0.163097    2.145749    0.041786
      6          1           0       -0.772596    1.261329   -1.398509
      7          1           0        0.961333    1.400394   -1.128212
      8          1           0       -0.961333   -1.400394   -1.128212
      9          1           0        0.163097   -2.145749    0.041786
     10          1           0        0.772596   -1.261329   -1.398509
 ---------------------------------------------------------------------
                    Distance matrix (angstroms):
                    1          2          3          4          5
     1  C    0.000000
     2  C    1.519098   0.000000
     3  O    2.395241   1.215258   0.000000
     4  C    2.578534   1.519098   2.395241   0.000000
     5  H    1.091546   2.156859   2.546134   3.501428   0.000000
     6  H    1.096977   2.168628   3.167707   2.778741   1.796702
     7  H    1.098716   2.148508   3.048039   2.900429   1.785719
     8  H    2.900429   2.148508   3.048039   1.098716   3.818534
     9  H    3.501428   2.156859   2.546134   1.091546   4.303876
    10  H    2.778741   2.168628   3.167707   1.096977   3.815514
                    6          7          8          9         10
     6  H    0.000000
     7  H    1.760371   0.000000
     8  H    2.682060   3.397213   0.000000
     9  H    3.815514   3.818534   1.785719   0.000000
    10  H    2.958279   2.682060   1.760371   1.796702   0.000000
 Stoichiometry    C3H6O
 Framework group  C2[C2(CO),X(C2H6)]
 Deg. of freedom    12
 Full point group                 C2      NOp   2
 Largest Abelian subgroup         C2      NOp   2
 Largest concise Abelian subgroup C2      NOp   2
                         Standard orientation:                         
 ---------------------------------------------------------------------
 Center     Atomic      Atomic             Coordinates (Angstroms)
 Number     Number       Type             X           Y           Z
 ---------------------------------------------------------------------
      1          6           0        0.000000    1.289267   -0.615493
      2          6           0       -0.000000   -0.000000    0.187905
      3          8           0       -0.000000   -0.000000    1.403163
      4          6           0       -0.000000   -1.289267   -0.615493
      5          1           0       -0.155922    2.146282    0.042295
      6          1           0       -0.768374    1.263905   -1.398000
      7          1           0        0.966010    1.397172   -1.127703
      8          1           0       -0.966010   -1.397172   -1.127703
      9          1           0        0.155922   -2.146282    0.042295
     10          1           0        0.768374   -1.263905   -1.398000
 ---------------------------------------------------------------------
 Rotational constants (GHZ):          10.0640071           8.5005066           4.8862128
 Standard basis: def2TZVP (5D, 7F)
 There are    94 symmetry adapted cartesian basis functions of A   symmetry.
 There are    86 symmetry adapted cartesian basis functions of B   symmetry.
 There are    83 symmetry adapted basis functions of A   symmetry.
 There are    77 symmetry adapted basis functions of B   symmetry.
   160 basis functions,   252 primitive gaussians,   180 cartesian basis functions
    16 alpha electrons       16 beta electrons
       nuclear repulsion energy       119.0474698285 Hartrees.
 NAtoms=   10 NActive=   10 NUniq=    6 SFac= 2.78D+00 NAtFMM=   60 NAOKFM=F Big=F
 Integral buffers will be    131072 words long.
 Raffenetti 2 integral format.
 Two-electron integral symmetry is turned on.
 Nuclear repulsion after empirical dispersion term =      119.0297480735 Hartrees.
 Standard density basis: Auto (5D, 7F)
   734 Density fitting functions
 There are   734 symmetry adapted density basis functions of A   symmetry.
 One-electron integrals computed using PRISM.
   2 Symmetry operations used in ECPInt.
 ECPInt:  NShTT=    2346 NPrTT=    6892 LenC2=    2340 LenP2D=    5977.
 LDataN:  DoStor=T MaxTD1= 6 Len=  172
 NBasis=   160 RedAO= T EigKep=  4.16D-04  NBF=    83    77
 NBsUse=   160 1.00D-06 EigRej= -1.00D+00 NBFU=    83    77
 NBasis=      160 NBas6D=      180 NTT=       12880   NTT6D=    16290
 NDBShl=      110 NDBF=        734 NDBF6D=      928  NNucDB=        0
 IDenFi=        2 ISolve=        0 FullAP=F BlkAPC=T NucTyp=        0
 TolInv= 1.00D-06 TolIt=  1.00D-10 IR12=0.
 FoFCou: FMM=F IPFlag=           0 FMFlag=           0 FMFlg1=           0
         NFxFlg=           0 DoJE=F BraDBF=T KetDBF=T FulRan=T
         wScrn=  0.000000 ICntrl=       600 IOpCl=  3 I1Cent=           6 NGrid=           0
         NMat0=    1 NMatS0=    928 NMatT0=    0 NMatD0=    1 NMtDS0=    0 NMtDT0=    0
 Petite list used in FoFCou.
 DBF EigKep=  1.29D-06 EigRej=  7.48D-07
 NDBF=    734  NBFD=   734
 NRank=   724 NBFDU=   724
 S*AI*S=  7.30894871410    
 Initial guess from the checkpoint file:  "/home/monty/scratch/Gau-14937.chk"
 B after Tr=     0.000000   -0.000000    0.000000
         Rot=    1.000000    0.000000    0.000000    0.000061 Ang=   0.01 deg.
 Recovered     1 saved fitting vectors from chk file.
 Initial guess orbital symmetries:
       Occupied  (A) (A) (B) (A) (A) (A) (B) (A) (B) (B) (A) (A)
                 (A) (B) (B) (B)
       Virtual   (B) (A) (B) (A) (B) (A) (B) (A) (A) (B) (A) (A)
                 (B) (A) (B) (B) (B) (A) (A) (B) (B) (A) (B) (A)
                 (A) (B) (A) (B) (A) (B) (A) (B) (B) (A) (B) (A)
                 (A) (A) (B) (A) (B) (B) (A) (B) (A) (B) (A) (A)
                 (B) (A) (B) (A) (B) (A) (B) (A) (B) (A) (A) (B)
                 (B) (A) (B) (A) (B) (A) (B) (A) (B) (B) (A) (A)
                 (A) (A) (B) (A) (B) (B) (B) (B) (A) (A) (B) (A)
                 (B) (B) (B) (A) (A) (B) (B) (A) (A) (A) (B) (B)
                 (A) (B) (A) (A) (B) (B) (A) (B) (A) (A) (B) (A)
                 (B) (A) (A) (B) (A) (B) (A) (B) (A) (B) (B) (B)
                 (A) (B) (A) (A) (A) (B) (B) (A) (B) (B) (A) (A)
                 (B) (A) (A) (A) (B) (B) (B) (A) (B) (A) (A) (A)
 ExpMin= 9.52D-02 ExpMax= 2.70D+04 ExpMxC= 9.22D+02 IAcc=3 IRadAn=         5 AccDes= 0.00D+00
 Harris functional with IExCor= 3630 and IRadAn=       5 diagonalized for initial guess.
 HarFok:  IExCor= 3630 AccDes= 0.00D+00 IRadAn=         5 IDoV= 1 UseB2=F ITyADJ=14
 ICtDFT=  3500011 ScaDFX=  1.000000  1.000000  1.000000  1.000000
 FoFCou: FMM=F IPFlag=           0 FMFlag=      100000 FMFlg1=           0
         NFxFlg=           0 DoJE=T BraDBF=F KetDBF=T FulRan=T
         wScrn=  0.000000 ICntrl=       500 IOpCl=  0 I1Cent=   200000004 NGrid=           0
         NMat0=    1 NMatS0=      1 NMatT0=    0 NMatD0=    1 NMtDS0=    0 NMtDT0=    0
 Petite list used in FoFCou.
 Requested convergence on RMS density matrix=1.00D-08 within 128 cycles.
 Requested convergence on MAX density matrix=1.00D-06.
 Requested convergence on             energy=1.00D-06.
 No special actions if energy rises.
 FoFCou: FMM=F IPFlag=           0 FMFlag=      100000 FMFlg1=           0
         NFxFlg=           0 DoJE=T BraDBF=T KetDBF=F FulRan=T
         wScrn=  0.000000 ICntrl=       500 IOpCl=  0 I1Cent=           5 NGrid=           0
         NMat0=    1 NMatS0=      1 NMatT0=    0 NMatD0=    1 NMtDS0=    0 NMtDT0=    0
 Petite list used in FoFCou.
 Initial convergence to 1.0D-05 achieved.  Increase integral accuracy.
 SCF Done:  E(RB97D3) =  -193.117253016     A.U. after   11 cycles
            NFock= 11  Conv=0.44D-08     -V/T= 2.0047
   2 Symmetry operations used in ECPInt.
 ECPInt:  NShTT=    2346 NPrTT=    6892 LenC2=    2340 LenP2D=    5977.
 LDataN:  DoStor=T MaxTD1= 7 Len=  274
 Calling FoFJK, ICntrl=      2527 FMM=F ISym2X=1 I1Cent= 4 IOpClX= 0 NMat=1 NMatS=1 NMatT=0.
 ***** Axes restored to original set *****
 -------------------------------------------------------------------
 Center     Atomic                   Forces (Hartrees/Bohr)
 Number     Number              X              Y              Z
 -------------------------------------------------------------------
      1        6           0.000392668   -0.000077123   -0.000540841
      2        6          -0.000000000    0.000000000    0.000214789
      3        8          -0.000000000    0.000000000   -0.000044038
      4        6          -0.000392668    0.000077123   -0.000540841
      5        1          -0.000104881   -0.000058274   -0.000005877
      6        1          -0.000051773    0.000032614    0.000253262
      7        1          -0.000217747   -0.000074146    0.000208080
      8        1           0.000217747    0.000074146    0.000208080
      9        1           0.000104881    0.000058274   -0.000005877
     10        1           0.000051773   -0.000032614    0.000253262
 -------------------------------------------------------------------
 Cartesian Forces:  Max     0.000540841 RMS     0.000208999

 GradGradGradGradGradGradGradGradGradGradGradGradGradGradGradGradGradGrad
 Berny optimization.
 Using GEDIIS/GDIIS optimizer.
 FormGI is forming the generalized inverse of G from B-inverse, IUseBI=4.
 Internal  Forces:  Max     0.000295640 RMS     0.000119055
 Search for a local minimum.
 Step number   2 out of a maximum of   46
 All quantities printed in internal units (Hartrees-Bohrs-Radians)
 Mixed Optimization -- En-DIIS/RFO-DIIS
 Update second derivatives using D2CorX and points    1    2
 DE= -7.05D-04 DEPred=-6.87D-04 R= 1.03D+00
 TightC=F SS=  1.41D+00  RLast= 6.65D-02 DXNew= 5.0454D-01 1.9958D-01
 Trust test= 1.03D+00 RLast= 6.65D-02 DXMaxT set to 3.00D-01
 ITU=  1  0
 Use linear search instead of GDIIS.
     Eigenvalues ---    0.00513   0.00513   0.00513   0.07089   0.07094
     Eigenvalues ---    0.07400   0.07402   0.15991   0.16000   0.16000
     Eigenvalues ---    0.16000   0.16000   0.16091   0.24981   0.25000
     Eigenvalues ---    0.30415   0.30453   0.31464   0.32018   0.32572
     Eigenvalues ---    0.32615   0.33420   0.33525   0.97514
 RFO step:  Lambda=-3.18122951D-06 EMin= 5.12949102D-03
 Quartic linear search produced a step of  0.01793.
 Iteration  1 RMS(Cart)=  0.00265623 RMS(Int)=  0.00000477
 Iteration  2 RMS(Cart)=  0.00000463 RMS(Int)=  0.00000050
 Iteration  3 RMS(Cart)=  0.00000000 RMS(Int)=  0.00000050
 ClnCor:  largest displacement from symmetrization is 7.25D-13 for atom     9.
 Variable       Old X    -DE/DX   Delta X   Delta X   Delta X     New X
                                 (Linear)    (Quad)   (Total)
    R1        2.87068  -0.00011  -0.00000  -0.00035  -0.00035   2.87033
    R2        2.06272  -0.00003  -0.00037   0.00023  -0.00013   2.06259
    R3        2.07299  -0.00015  -0.00044  -0.00005  -0.00049   2.07250
    R4        2.07627  -0.00030  -0.00057  -0.00042  -0.00099   2.07529
    R5        2.29650  -0.00004  -0.00000  -0.00005  -0.00005   2.29646
    R6        2.87068  -0.00011  -0.00000  -0.00035  -0.00035   2.87033
    R7        2.07627  -0.00030  -0.00057  -0.00042  -0.00099   2.07529
    R8        2.06272  -0.00003  -0.00037   0.00023  -0.00013   2.06259
    R9        2.07299  -0.00015  -0.00044  -0.00005  -0.00049   2.07250
    A1        1.92586  -0.00006   0.00011  -0.00084  -0.00073   1.92512
    A2        1.93653  -0.00007   0.00009  -0.00065  -0.00056   1.93596
    A3        1.90700  -0.00004   0.00004   0.00012   0.00016   1.90716
    A4        1.92620  -0.00006  -0.00012  -0.00103  -0.00115   1.92505
    A5        1.90648   0.00008  -0.00008   0.00080   0.00072   1.90720
    A6        1.86040   0.00016  -0.00006   0.00173   0.00168   1.86207
    A7        2.12806   0.00014  -0.00001   0.00056   0.00055   2.12861
    A8        2.02707  -0.00027   0.00001  -0.00111  -0.00110   2.02596
    A9        2.12806   0.00014  -0.00001   0.00056   0.00055   2.12861
   A10        1.90700  -0.00004   0.00004   0.00012   0.00016   1.90716
   A11        1.92586  -0.00006   0.00011  -0.00084  -0.00073   1.92512
   A12        1.93653  -0.00007   0.00009  -0.00065  -0.00056   1.93596
   A13        1.90648   0.00008  -0.00008   0.00080   0.00072   1.90720
   A14        1.86040   0.00016  -0.00006   0.00173   0.00168   1.86207
   A15        1.92620  -0.00006  -0.00012  -0.00103  -0.00115   1.92505
    D1       -0.15294  -0.00005   0.00005   0.00206   0.00211  -0.15083
    D2        2.98865  -0.00005   0.00005   0.00206   0.00211   2.99076
    D3       -2.29345   0.00011   0.00006   0.00440   0.00446  -2.28899
    D4        0.84814   0.00011   0.00006   0.00440   0.00446   0.85260
    D5        1.94347  -0.00002   0.00005   0.00260   0.00264   1.94611
    D6       -1.19813  -0.00002   0.00005   0.00260   0.00264  -1.19548
    D7       -1.19813  -0.00002   0.00005   0.00260   0.00264  -1.19548
    D8        2.98865  -0.00005   0.00005   0.00206   0.00211   2.99076
    D9        0.84814   0.00011   0.00006   0.00440   0.00446   0.85260
   D10        1.94347  -0.00002   0.00005   0.00260   0.00264   1.94611
   D11       -0.15294  -0.00005   0.00005   0.00206   0.00211  -0.15083
   D12       -2.29345   0.00011   0.00006   0.00440   0.00446  -2.28899
         Item               Value     Threshold  Converged?
 Maximum Force            0.000296     0.000450     YES
 RMS     Force            0.000119     0.000300     YES
 Maximum Displacement     0.005821     0.001800     NO 
 RMS     Displacement     0.002656     0.001200     NO 
 Predicted change in Energy=-1.845688D-06
 GradGradGradGradGradGradGradGradGradGradGradGradGradGradGradGradGradGrad

                          Input orientation:                          
 ---------------------------------------------------------------------
 Center     Atomic      Atomic             Coordinates (Angstroms)
 Number     Number       Type             X           Y           Z
 ---------------------------------------------------------------------
      1          6           0       -0.004393    1.288659   -0.616449
      2          6           0       -0.000000   -0.000000    0.187561
      3          8           0       -0.000000    0.000000    1.402794
      4          6           0        0.004393   -1.288659   -0.616449
      5          1           0       -0.161133    2.145133    0.041731
      6          1           0       -0.775676    1.261491   -1.395663
      7          1           0        0.959734    1.398319   -1.130709
      8          1           0       -0.959734   -1.398319   -1.130709
      9          1           0        0.161133   -2.145133    0.041731
     10          1           0        0.775676   -1.261491   -1.395663
 ---------------------------------------------------------------------
                    Distance matrix (angstroms):
                    1          2          3          4          5
     1  C    0.000000
     2  C    1.518912   0.000000
     3  O    2.395413   1.215234   0.000000
     4  C    2.577333   1.518912   2.395413   0.000000
     5  H    1.091474   2.156113   2.545594   3.500218   0.000000
     6  H    1.096718   2.167863   3.166133   2.778299   1.795714
     7  H    1.098194   2.148074   3.048774   2.897756   1.785690
     8  H    2.897756   2.148074   3.048774   1.098194   3.816861
     9  H    3.500218   2.156113   2.545594   1.091474   4.302352
    10  H    2.778299   2.167863   3.166133   1.096718   3.814289
                    6          7          8          9         10
     6  H    0.000000
     7  H    1.760843   0.000000
     8  H    2.679303   3.391982   0.000000
     9  H    3.814289   3.816861   1.785690   0.000000
    10  H    2.961778   2.679303   1.760843   1.795714   0.000000
 Stoichiometry    C3H6O
 Framework group  C2[C2(CO),X(C2H6)]
 Deg. of freedom    12
 Full point group                 C2      NOp   2
 Largest Abelian subgroup         C2      NOp   2
 Largest concise Abelian subgroup C2      NOp   2
                         Standard orientation:                         
 ---------------------------------------------------------------------
 Center     Atomic      Atomic             Coordinates (Angstroms)
 Number     Number       Type             X           Y           Z
 ---------------------------------------------------------------------
      1          6           0        0.000000    1.288666   -0.615857
      2          6           0        0.000000    0.000000    0.188153
      3          8           0        0.000000    0.000000    1.403387
      4          6           0       -0.000000   -1.288666   -0.615857
      5          1           0       -0.153819    2.145669    0.042323
      6          1           0       -0.771371    1.264128   -1.395071
      7          1           0        0.964495    1.395039   -1.130117
      8          1           0       -0.964495   -1.395039   -1.130117
      9          1           0        0.153819   -2.145669    0.042323
     10          1           0        0.771371   -1.264128   -1.395071
 ---------------------------------------------------------------------
 Rotational constants (GHZ):          10.0602533           8.5078397           4.8879491
 Standard basis: def2TZVP (5D, 7F)
 There are    94 symmetry adapted cartesian basis functions of A   symmetry.
 There are    86 symmetry adapted cartesian basis functions of B   symmetry.
 There are    83 symmetry adapted basis functions of A   symmetry.
 There are    77 symmetry adapted basis functions of B   symmetry.
   160 basis functions,   252 primitive gaussians,   180 cartesian basis functions
    16 alpha electrons       16 beta electrons
       nuclear repulsion energy       119.0652586649 Hartrees.
 NAtoms=   10 NActive=   10 NUniq=    6 SFac= 2.78D+00 NAtFMM=   60 NAOKFM=F Big=F
 Integral buffers will be    131072 words long.
 Raffenetti 2 integral format.
 Two-electron integral symmetry is turned on.
 Nuclear repulsion after empirical dispersion term =      119.0475313366 Hartrees.
 Standard density basis: Auto (5D, 7F)
   734 Density fitting functions
 There are   734 symmetry adapted density basis functions of A   symmetry.
 One-electron integrals computed using PRISM.
   2 Symmetry operations used in ECPInt.
 ECPInt:  NShTT=    2346 NPrTT=    6892 LenC2=    2340 LenP2D=    5977.
 LDataN:  DoStor=T MaxTD1= 6 Len=  172
 NBasis=   160 RedAO= T EigKep=  4.16D-04  NBF=    83    77
 NBsUse=   160 1.00D-06 EigRej= -1.00D+00 NBFU=    83    77
 NBasis=      160 NBas6D=      180 NTT=       12880   NTT6D=    16290
 NDBShl=      110 NDBF=        734 NDBF6D=      928  NNucDB=        0
 IDenFi=        2 ISolve=        0 FullAP=F BlkAPC=T NucTyp=        0
 TolInv= 1.00D-06 TolIt=  1.00D-10 IR12=0.
 FoFCou: FMM=F IPFlag=           0 FMFlag=           0 FMFlg1=           0
         NFxFlg=           0 DoJE=F BraDBF=T KetDBF=T FulRan=T
         wScrn=  0.000000 ICntrl=       600 IOpCl=  3 I1Cent=           6 NGrid=           0
         NMat0=    1 NMatS0=    928 NMatT0=    0 NMatD0=    1 NMtDS0=    0 NMtDT0=    0
 Petite list used in FoFCou.
 DBF EigKep=  1.29D-06 EigRej=  7.48D-07
 NDBF=    734  NBFD=   734
 NRank=   724 NBFDU=   724
 S*AI*S=  7.30834906270    
 Initial guess from the checkpoint file:  "/home/monty/scratch/Gau-14937.chk"
 B after Tr=     0.000000    0.000000   -0.000000
         Rot=    1.000000   -0.000000   -0.000000    0.000019 Ang=   0.00 deg.
 Recovered     1 saved fitting vectors from chk file.
 Initial guess orbital symmetries:
       Occupied  (A) (A) (B) (A) (A) (A) (B) (A) (B) (B) (A) (A)
                 (A) (B) (B) (B)
       Virtual   (B) (A) (B) (A) (B) (A) (B) (A) (A) (B) (A) (A)
                 (B) (A) (B) (B) (B) (A) (A) (B) (B) (A) (B) (A)
                 (A) (B) (A) (B) (A) (B) (A) (B) (B) (A) (B) (A)
                 (A) (A) (B) (A) (B) (B) (A) (B) (A) (B) (A) (A)
                 (B) (A) (B) (A) (B) (A) (A) (B) (B) (A) (A) (B)
                 (B) (A) (B) (A) (B) (A) (B) (A) (B) (B) (A) (A)
                 (A) (A) (B) (A) (B) (B) (B) (B) (A) (A) (B) (A)
                 (B) (B) (B) (A) (A) (B) (B) (A) (A) (B) (A) (B)
                 (A) (B) (A) (A) (B) (B) (A) (B) (A) (A) (B) (A)
                 (B) (A) (A) (B) (A) (B) (A) (B) (B) (A) (B) (B)
                 (A) (B) (A) (A) (A) (B) (B) (A) (B) (B) (A) (A)
                 (B) (A) (A) (A) (B) (B) (B) (A) (B) (A) (A) (A)
 Requested convergence on RMS density matrix=1.00D-08 within 128 cycles.
 Requested convergence on MAX density matrix=1.00D-06.
 Requested convergence on             energy=1.00D-06.
 No special actions if energy rises.
 FoFCou: FMM=F IPFlag=           0 FMFlag=      100000 FMFlg1=           0
         NFxFlg=           0 DoJE=T BraDBF=T KetDBF=F FulRan=T
         wScrn=  0.000000 ICntrl=       500 IOpCl=  0 I1Cent=           5 NGrid=           0
         NMat0=    1 NMatS0=      1 NMatT0=    0 NMatD0=    1 NMtDS0=    0 NMtDT0=    0
 Petite list used in FoFCou.
 SCF Done:  E(RB97D3) =  -193.117255431     A.U. after    8 cycles
            NFock=  8  Conv=0.41D-08     -V/T= 2.0047
   2 Symmetry operations used in ECPInt.
 ECPInt:  NShTT=    2346 NPrTT=    6892 LenC2=    2340 LenP2D=    5977.
 LDataN:  DoStor=T MaxTD1= 7 Len=  274
 Calling FoFJK, ICntrl=      2527 FMM=F ISym2X=1 I1Cent= 4 IOpClX= 0 NMat=1 NMatS=1 NMatT=0.
 ***** Axes restored to original set *****
 -------------------------------------------------------------------
 Center     Atomic                   Forces (Hartrees/Bohr)
 Number     Number              X              Y              Z
 -------------------------------------------------------------------
      1        6           0.000135146    0.000027501   -0.000113607
      2        6          -0.000000000    0.000000000    0.000128385
      3        8          -0.000000000    0.000000000   -0.000044584
      4        6          -0.000135146   -0.000027501   -0.000113607
      5        1          -0.000036567    0.000037588    0.000010197
      6        1          -0.000067837    0.000002273    0.000049866
      7        1          -0.000022258   -0.000011107    0.000011643
      8        1           0.000022258    0.000011107    0.000011643
      9        1           0.000036567   -0.000037588    0.000010197
     10        1           0.000067837   -0.000002273    0.000049866
 -------------------------------------------------------------------
 Cartesian Forces:  Max     0.000135146 RMS     0.000058802

 GradGradGradGradGradGradGradGradGradGradGradGradGradGradGradGradGradGrad
 Berny optimization.
 Using GEDIIS/GDIIS optimizer.
 FormGI is forming the generalized inverse of G from B-inverse, IUseBI=4.
 Internal  Forces:  Max     0.000069875 RMS     0.000034272
 Search for a local minimum.
 Step number   3 out of a maximum of   46
 All quantities printed in internal units (Hartrees-Bohrs-Radians)
 Mixed Optimization -- En-DIIS/RFO-DIIS
 Swapping is turned off.
 Update second derivatives using D2CorX and points    1    2    3
 DE= -2.41D-06 DEPred=-1.85D-06 R= 1.31D+00
 TightC=F SS=  1.41D+00  RLast= 1.19D-02 DXNew= 5.0454D-01 3.5604D-02
 Trust test= 1.31D+00 RLast= 1.19D-02 DXMaxT set to 3.00D-01
 ITU=  1  1  0
     Eigenvalues ---    0.00354   0.00513   0.00513   0.05940   0.07106
     Eigenvalues ---    0.07400   0.07536   0.15555   0.16000   0.16000
     Eigenvalues ---    0.16000   0.16006   0.16485   0.25000   0.25052
     Eigenvalues ---    0.30453   0.30631   0.32018   0.32348   0.32615
     Eigenvalues ---    0.33116   0.33420   0.37342   0.97475
 En-DIIS/RFO-DIIS/Sim-DIIS IScMMF=       -3 using points:     3    2
 RFO step:  Lambda=-1.68368202D-06.
 DidBck=F Rises=F RFO-DIIS coefs:    2.58958   -1.58958
 Iteration  1 RMS(Cart)=  0.00443602 RMS(Int)=  0.00001209
 Iteration  2 RMS(Cart)=  0.00001211 RMS(Int)=  0.00000090
 Iteration  3 RMS(Cart)=  0.00000000 RMS(Int)=  0.00000090
 ClnCor:  largest displacement from symmetrization is 7.59D-13 for atom     8.
 Variable       Old X    -DE/DX   Delta X   Delta X   Delta X     New X
                                 (Linear)    (Quad)   (Total)
    R1        2.87033   0.00007  -0.00056   0.00079   0.00023   2.87056
    R2        2.06259   0.00004  -0.00021   0.00033   0.00011   2.06270
    R3        2.07250   0.00001  -0.00078   0.00065  -0.00012   2.07237
    R4        2.07529  -0.00003  -0.00157   0.00111  -0.00046   2.07483
    R5        2.29646  -0.00004  -0.00007  -0.00001  -0.00008   2.29638
    R6        2.87033   0.00007  -0.00056   0.00079   0.00023   2.87056
    R7        2.07529  -0.00003  -0.00157   0.00111  -0.00046   2.07483
    R8        2.06259   0.00004  -0.00021   0.00033   0.00011   2.06270
    R9        2.07250   0.00001  -0.00078   0.00065  -0.00012   2.07237
    A1        1.92512   0.00002  -0.00117   0.00101  -0.00015   1.92497
    A2        1.93596  -0.00006  -0.00090   0.00009  -0.00081   1.93515
    A3        1.90716   0.00001   0.00025   0.00014   0.00039   1.90755
    A4        1.92505  -0.00003  -0.00182   0.00080  -0.00103   1.92402
    A5        1.90720   0.00001   0.00114  -0.00058   0.00056   1.90776
    A6        1.86207   0.00004   0.00266  -0.00155   0.00111   1.86319
    A7        2.12861   0.00002   0.00088  -0.00061   0.00027   2.12888
    A8        2.02596  -0.00004  -0.00175   0.00121  -0.00054   2.02542
    A9        2.12861   0.00002   0.00088  -0.00061   0.00027   2.12888
   A10        1.90716   0.00001   0.00025   0.00014   0.00039   1.90755
   A11        1.92512   0.00002  -0.00117   0.00101  -0.00015   1.92497
   A12        1.93596  -0.00006  -0.00090   0.00009  -0.00081   1.93515
   A13        1.90720   0.00001   0.00114  -0.00058   0.00056   1.90776
   A14        1.86207   0.00004   0.00266  -0.00155   0.00111   1.86319
   A15        1.92505  -0.00003  -0.00182   0.00080  -0.00103   1.92402
    D1       -0.15083  -0.00001   0.00335   0.00126   0.00462  -0.14622
    D2        2.99076  -0.00001   0.00335   0.00126   0.00462   2.99538
    D3       -2.28899   0.00005   0.00709  -0.00051   0.00658  -2.28241
    D4        0.85260   0.00005   0.00709  -0.00051   0.00658   0.85918
    D5        1.94611   0.00002   0.00420   0.00126   0.00546   1.95157
    D6       -1.19548   0.00002   0.00420   0.00126   0.00546  -1.19003
    D7       -1.19548   0.00002   0.00420   0.00126   0.00546  -1.19003
    D8        2.99076  -0.00001   0.00335   0.00126   0.00462   2.99538
    D9        0.85260   0.00005   0.00709  -0.00051   0.00658   0.85918
   D10        1.94611   0.00002   0.00420   0.00126   0.00546   1.95157
   D11       -0.15083  -0.00001   0.00335   0.00126   0.00462  -0.14622
   D12       -2.28899   0.00005   0.00709  -0.00051   0.00658  -2.28241
         Item               Value     Threshold  Converged?
 Maximum Force            0.000070     0.000450     YES
 RMS     Force            0.000034     0.000300     YES
 Maximum Displacement     0.009697     0.001800     NO 
 RMS     Displacement     0.004436     0.001200     NO 
 Predicted change in Energy=-8.418876D-07
 GradGradGradGradGradGradGradGradGradGradGradGradGradGradGradGradGradGrad

                          Input orientation:                          
 ---------------------------------------------------------------------
 Center     Atomic      Atomic             Coordinates (Angstroms)
 Number     Number       Type             X           Y           Z
 ---------------------------------------------------------------------
      1          6           0       -0.004917    1.288545   -0.616652
      2          6           0       -0.000000   -0.000000    0.187771
      3          8           0       -0.000000   -0.000000    1.402962
      4          6           0        0.004917   -1.288545   -0.616652
      5          1           0       -0.157350    2.145464    0.042059
      6          1           0       -0.780808    1.262718   -1.391230
      7          1           0        0.956743    1.396016   -1.135458
      8          1           0       -0.956743   -1.396016   -1.135458
      9          1           0        0.157350   -2.145464    0.042059
     10          1           0        0.780808   -1.262718   -1.391230
 ---------------------------------------------------------------------
                    Distance matrix (angstroms):
                    1          2          3          4          5
     1  C    0.000000
     2  C    1.519036   0.000000
     3  O    2.395665   1.215191   0.000000
     4  C    2.577109   1.519036   2.395665   0.000000
     5  H    1.091534   2.156156   2.545552   3.500379   0.000000
     6  H    1.096652   2.167340   3.164115   2.779618   1.795065
     7  H    1.097952   2.148291   3.050868   2.895169   1.785895
     8  H    2.895169   2.148291   3.050868   1.097952   3.816760
     9  H    3.500379   2.156156   2.545552   1.091534   4.302453
    10  H    2.779618   2.167340   3.164115   1.096652   3.814467
                    6          7          8          9         10
     6  H    0.000000
     7  H    1.761327   0.000000
     8  H    2.676796   3.384801   0.000000
     9  H    3.814467   3.816760   1.785895   0.000000
    10  H    2.969253   2.676796   1.761327   1.795065   0.000000
 Stoichiometry    C3H6O
 Framework group  C2[C2(CO),X(C2H6)]
 Deg. of freedom    12
 Full point group                 C2      NOp   2
 Largest Abelian subgroup         C2      NOp   2
 Largest concise Abelian subgroup C2      NOp   2
                         Standard orientation:                         
 ---------------------------------------------------------------------
 Center     Atomic      Atomic             Coordinates (Angstroms)
 Number     Number       Type             X           Y           Z
 ---------------------------------------------------------------------
      1          6           0        0.000000    1.288555   -0.616066
      2          6           0       -0.000000    0.000000    0.188357
      3          8           0       -0.000000    0.000000    1.403548
      4          6           0       -0.000000   -1.288555   -0.616066
      5          1           0       -0.149162    2.146049    0.042645
      6          1           0       -0.775984    1.265688   -1.390644
      7          1           0        0.962063    1.392355   -1.134871
      8          1           0       -0.962063   -1.392355   -1.134871
      9          1           0        0.149162   -2.146049    0.042645
     10          1           0        0.775984   -1.265688   -1.390644
 ---------------------------------------------------------------------
 Rotational constants (GHZ):          10.0575776           8.5090790           4.8879265
 Standard basis: def2TZVP (5D, 7F)
 There are    94 symmetry adapted cartesian basis functions of A   symmetry.
 There are    86 symmetry adapted cartesian basis functions of B   symmetry.
 There are    83 symmetry adapted basis functions of A   symmetry.
 There are    77 symmetry adapted basis functions of B   symmetry.
   160 basis functions,   252 primitive gaussians,   180 cartesian basis functions
    16 alpha electrons       16 beta electrons
       nuclear repulsion energy       119.0648800359 Hartrees.
 NAtoms=   10 NActive=   10 NUniq=    6 SFac= 2.78D+00 NAtFMM=   60 NAOKFM=F Big=F
 Integral buffers will be    131072 words long.
 Raffenetti 2 integral format.
 Two-electron integral symmetry is turned on.
 Nuclear repulsion after empirical dispersion term =      119.0471515948 Hartrees.
 Standard density basis: Auto (5D, 7F)
   734 Density fitting functions
 There are   734 symmetry adapted density basis functions of A   symmetry.
 One-electron integrals computed using PRISM.
   2 Symmetry operations used in ECPInt.
 ECPInt:  NShTT=    2346 NPrTT=    6892 LenC2=    2340 LenP2D=    5977.
 LDataN:  DoStor=T MaxTD1= 6 Len=  172
 NBasis=   160 RedAO= T EigKep=  4.17D-04  NBF=    83    77
 NBsUse=   160 1.00D-06 EigRej= -1.00D+00 NBFU=    83    77
 NBasis=      160 NBas6D=      180 NTT=       12880   NTT6D=    16290
 NDBShl=      110 NDBF=        734 NDBF6D=      928  NNucDB=        0
 IDenFi=        2 ISolve=        0 FullAP=F BlkAPC=T NucTyp=        0
 TolInv= 1.00D-06 TolIt=  1.00D-10 IR12=0.
 FoFCou: FMM=F IPFlag=           0 FMFlag=           0 FMFlg1=           0
         NFxFlg=           0 DoJE=F BraDBF=T KetDBF=T FulRan=T
         wScrn=  0.000000 ICntrl=       600 IOpCl=  3 I1Cent=           6 NGrid=           0
         NMat0=    1 NMatS0=    928 NMatT0=    0 NMatD0=    1 NMtDS0=    0 NMtDT0=    0
 Petite list used in FoFCou.
 DBF EigKep=  1.29D-06 EigRej=  7.50D-07
 NDBF=    734  NBFD=   734
 NRank=   724 NBFDU=   724
 S*AI*S=  7.30805233370    
 Initial guess from the checkpoint file:  "/home/monty/scratch/Gau-14937.chk"
 B after Tr=     0.000000    0.000000    0.000000
         Rot=    1.000000    0.000000    0.000000    0.000117 Ang=   0.01 deg.
 Recovered     1 saved fitting vectors from chk file.
 Initial guess orbital symmetries:
       Occupied  (A) (A) (B) (A) (A) (A) (B) (A) (B) (B) (A) (A)
                 (A) (B) (B) (B)
       Virtual   (B) (A) (B) (A) (B) (A) (B) (A) (A) (B) (A) (A)
                 (B) (A) (B) (B) (B) (A) (A) (B) (B) (A) (B) (A)
                 (A) (B) (A) (B) (A) (B) (A) (B) (B) (A) (B) (A)
                 (A) (A) (B) (A) (B) (B) (A) (B) (A) (B) (A) (A)
                 (B) (A) (B) (A) (B) (A) (A) (B) (B) (A) (A) (B)
                 (B) (A) (B) (A) (B) (A) (B) (A) (B) (B) (A) (A)
                 (A) (A) (B) (A) (B) (B) (B) (B) (A) (A) (B) (A)
                 (B) (B) (B) (A) (A) (B) (B) (A) (A) (B) (A) (B)
                 (A) (B) (A) (A) (B) (B) (A) (B) (A) (A) (B) (A)
                 (B) (A) (A) (B) (A) (B) (A) (B) (B) (A) (B) (B)
                 (A) (B) (A) (A) (A) (B) (B) (A) (B) (B) (A) (A)
                 (B) (A) (A) (A) (B) (B) (B) (A) (B) (A) (A) (A)
 Requested convergence on RMS density matrix=1.00D-08 within 128 cycles.
 Requested convergence on MAX density matrix=1.00D-06.
 Requested convergence on             energy=1.00D-06.
 No special actions if energy rises.
 FoFCou: FMM=F IPFlag=           0 FMFlag=      100000 FMFlg1=           0
         NFxFlg=           0 DoJE=T BraDBF=T KetDBF=F FulRan=T
         wScrn=  0.000000 ICntrl=       500 IOpCl=  0 I1Cent=           5 NGrid=           0
         NMat0=    1 NMatS0=      1 NMatT0=    0 NMatD0=    1 NMtDS0=    0 NMtDT0=    0
 Petite list used in FoFCou.
 SCF Done:  E(RB97D3) =  -193.117256672     A.U. after    8 cycles
            NFock=  8  Conv=0.37D-08     -V/T= 2.0047
   2 Symmetry operations used in ECPInt.
 ECPInt:  NShTT=    2346 NPrTT=    6892 LenC2=    2340 LenP2D=    5977.
 LDataN:  DoStor=T MaxTD1= 7 Len=  274
 Calling FoFJK, ICntrl=      2527 FMM=F ISym2X=1 I1Cent= 4 IOpClX= 0 NMat=1 NMatS=1 NMatT=0.
 ***** Axes restored to original set *****
 -------------------------------------------------------------------
 Center     Atomic                   Forces (Hartrees/Bohr)
 Number     Number              X              Y              Z
 -------------------------------------------------------------------
      1        6          -0.000020444    0.000042548    0.000135134
      2        6          -0.000000000    0.000000000    0.000032725
      3        8          -0.000000000   -0.000000000   -0.000030054
      4        6           0.000020444   -0.000042548    0.000135134
      5        1           0.000015892    0.000016104    0.000006826
      6        1          -0.000033103   -0.000012981   -0.000054055
      7        1           0.000040070    0.000017602   -0.000089240
      8        1          -0.000040070   -0.000017602   -0.000089240
      9        1          -0.000015892   -0.000016104    0.000006826
     10        1           0.000033103    0.000012981   -0.000054055
 -------------------------------------------------------------------
 Cartesian Forces:  Max     0.000135134 RMS     0.000049058

 GradGradGradGradGradGradGradGradGradGradGradGradGradGradGradGradGradGrad
 Berny optimization.
 Using GEDIIS/GDIIS optimizer.
 FormGI is forming the generalized inverse of G from B-inverse, IUseBI=4.
 Internal  Forces:  Max     0.000079220 RMS     0.000035715
 Search for a local minimum.
 Step number   4 out of a maximum of   46
 All quantities printed in internal units (Hartrees-Bohrs-Radians)
 Mixed Optimization -- En-DIIS/RFO-DIIS
 Swapping is turned off.
 Update second derivatives using D2CorX and points    1    2    3    4
 DE= -1.24D-06 DEPred=-8.42D-07 R= 1.47D+00
 TightC=F SS=  1.41D+00  RLast= 1.96D-02 DXNew= 5.0454D-01 5.8901D-02
 Trust test= 1.47D+00 RLast= 1.96D-02 DXMaxT set to 3.00D-01
 ITU=  1  1  1  0
     Eigenvalues ---    0.00132   0.00513   0.00513   0.06575   0.07114
     Eigenvalues ---    0.07397   0.08387   0.15677   0.16000   0.16000
     Eigenvalues ---    0.16000   0.16377   0.17633   0.25000   0.26285
     Eigenvalues ---    0.30453   0.31639   0.32018   0.32544   0.32615
     Eigenvalues ---    0.33315   0.33420   0.40196   0.97390
 En-DIIS/RFO-DIIS/Sim-DIIS IScMMF=       -3 using points:     4    3    2
 RFO step:  Lambda=-1.90269770D-06.
 DIIS inversion failure, remove point   3.
 RFO-DIIS uses    2 points instead of    3
 DidBck=F Rises=F RFO-DIIS coefs:    2.85659   -1.85659    0.00000
 Iteration  1 RMS(Cart)=  0.00826574 RMS(Int)=  0.00004065
 Iteration  2 RMS(Cart)=  0.00004124 RMS(Int)=  0.00000091
 Iteration  3 RMS(Cart)=  0.00000000 RMS(Int)=  0.00000091
 ClnCor:  largest displacement from symmetrization is 4.00D-13 for atom     9.
 Variable       Old X    -DE/DX   Delta X   Delta X   Delta X     New X
                                 (Linear)    (Quad)   (Total)
    R1        2.87056   0.00005   0.00043  -0.00014   0.00030   2.87086
    R2        2.06270   0.00001   0.00021  -0.00009   0.00012   2.06282
    R3        2.07237   0.00006  -0.00023   0.00029   0.00005   2.07243
    R4        2.07483   0.00008  -0.00085   0.00055  -0.00029   2.07453
    R5        2.29638  -0.00003  -0.00015   0.00002  -0.00013   2.29625
    R6        2.87056   0.00005   0.00043  -0.00014   0.00030   2.87086
    R7        2.07483   0.00008  -0.00085   0.00055  -0.00029   2.07453
    R8        2.06270   0.00001   0.00021  -0.00009   0.00012   2.06282
    R9        2.07237   0.00006  -0.00023   0.00029   0.00005   2.07243
    A1        1.92497   0.00001  -0.00029   0.00006  -0.00023   1.92474
    A2        1.93515  -0.00002  -0.00151   0.00032  -0.00119   1.93397
    A3        1.90755   0.00005   0.00073   0.00016   0.00089   1.90844
    A4        1.92402   0.00001  -0.00191   0.00084  -0.00108   1.92295
    A5        1.90776  -0.00001   0.00104  -0.00022   0.00082   1.90858
    A6        1.86319  -0.00004   0.00207  -0.00121   0.00086   1.86405
    A7        2.12888  -0.00002   0.00050  -0.00021   0.00029   2.12917
    A8        2.02542   0.00004  -0.00100   0.00041  -0.00059   2.02484
    A9        2.12888  -0.00002   0.00050  -0.00021   0.00029   2.12917
   A10        1.90755   0.00005   0.00073   0.00016   0.00089   1.90844
   A11        1.92497   0.00001  -0.00029   0.00006  -0.00023   1.92474
   A12        1.93515  -0.00002  -0.00151   0.00032  -0.00119   1.93397
   A13        1.90776  -0.00001   0.00104  -0.00022   0.00082   1.90858
   A14        1.86319  -0.00004   0.00207  -0.00121   0.00086   1.86405
   A15        1.92402   0.00001  -0.00191   0.00084  -0.00108   1.92295
    D1       -0.14622   0.00001   0.00857   0.00066   0.00923  -0.13699
    D2        2.99538   0.00001   0.00857   0.00066   0.00923   3.00460
    D3       -2.28241   0.00000   0.01222  -0.00066   0.01155  -2.27086
    D4        0.85918   0.00000   0.01222  -0.00066   0.01155   0.87073
    D5        1.95157   0.00003   0.01013   0.00052   0.01066   1.96222
    D6       -1.19003   0.00003   0.01013   0.00052   0.01066  -1.17937
    D7       -1.19003   0.00003   0.01013   0.00052   0.01066  -1.17937
    D8        2.99538   0.00001   0.00857   0.00066   0.00923   3.00460
    D9        0.85918   0.00000   0.01222  -0.00066   0.01155   0.87073
   D10        1.95157   0.00003   0.01013   0.00052   0.01066   1.96222
   D11       -0.14622   0.00001   0.00857   0.00066   0.00923  -0.13699
   D12       -2.28241   0.00000   0.01222  -0.00066   0.01155  -2.27086
         Item               Value     Threshold  Converged?
 Maximum Force            0.000079     0.000450     YES
 RMS     Force            0.000036     0.000300     YES
 Maximum Displacement     0.017498     0.001800     NO 
 RMS     Displacement     0.008266     0.001200     NO 
 Predicted change in Energy=-9.516182D-07
 GradGradGradGradGradGradGradGradGradGradGradGradGradGradGradGradGradGrad

                          Input orientation:                          
 ---------------------------------------------------------------------
 Center     Atomic      Atomic             Coordinates (Angstroms)
 Number     Number       Type             X           Y           Z
 ---------------------------------------------------------------------
      1          6           0       -0.006133    1.288437   -0.616760
      2          6           0       -0.000000   -0.000000    0.188125
      3          8           0       -0.000000   -0.000000    1.403246
      4          6           0        0.006133   -1.288437   -0.616760
      5          1           0       -0.150047    2.146053    0.043064
      6          1           0       -0.790067    1.265193   -1.383321
      7          1           0        0.950854    1.392058   -1.144583
      8          1           0       -0.950854   -1.392058   -1.144583
      9          1           0        0.150047   -2.146053    0.043064
     10          1           0        0.790067   -1.265193   -1.383321
 ---------------------------------------------------------------------
                    Distance matrix (angstroms):
                    1          2          3          4          5
     1  C    0.000000
     2  C    1.519193   0.000000
     3  O    2.395941   1.215121   0.000000
     4  C    2.576903   1.519193   2.395941   0.000000
     5  H    1.091598   2.156177   2.545221   3.500783   0.000000
     6  H    1.096681   2.166648   3.160676   2.782548   1.794468
     7  H    1.097797   2.148967   3.055058   2.890700   1.786336
     8  H    2.890700   2.148967   3.055058   1.097797   3.817070
     9  H    3.500783   2.156177   2.545221   1.091598   4.302584
    10  H    2.782548   2.166648   3.160676   1.096681   3.815100
                    6          7          8          9         10
     6  H    0.000000
     7  H    1.761788   0.000000
     8  H    2.672795   3.371615   0.000000
     9  H    3.815100   3.817070   1.786336   0.000000
    10  H    2.983233   2.672795   1.761788   1.794468   0.000000
 Stoichiometry    C3H6O
 Framework group  C2[C2(CO),X(C2H6)]
 Deg. of freedom    12
 Full point group                 C2      NOp   2
 Largest Abelian subgroup         C2      NOp   2
 Largest concise Abelian subgroup C2      NOp   2
                         Standard orientation:                         
 ---------------------------------------------------------------------
 Center     Atomic      Atomic             Coordinates (Angstroms)
 Number     Number       Type             X           Y           Z
 ---------------------------------------------------------------------
      1          6           0       -0.000000    1.288451   -0.616258
      2          6           0        0.000000    0.000000    0.188627
      3          8           0        0.000000    0.000000    1.403749
      4          6           0       -0.000000   -1.288451   -0.616258
      5          1           0       -0.139830    2.146743    0.043567
      6          1           0       -0.784036    1.268940   -1.382818
      7          1           0        0.957469    1.387516   -1.144080
      8          1           0       -0.957469   -1.387516   -1.144080
      9          1           0        0.139830   -2.146743    0.043567
     10          1           0        0.784036   -1.268940   -1.382818
 ---------------------------------------------------------------------
 Rotational constants (GHZ):          10.0542590           8.5103363           4.8877586
 Standard basis: def2TZVP (5D, 7F)
 There are    94 symmetry adapted cartesian basis functions of A   symmetry.
 There are    86 symmetry adapted cartesian basis functions of B   symmetry.
 There are    83 symmetry adapted basis functions of A   symmetry.
 There are    77 symmetry adapted basis functions of B   symmetry.
   160 basis functions,   252 primitive gaussians,   180 cartesian basis functions
    16 alpha electrons       16 beta electrons
       nuclear repulsion energy       119.0624446245 Hartrees.
 NAtoms=   10 NActive=   10 NUniq=    6 SFac= 2.78D+00 NAtFMM=   60 NAOKFM=F Big=F
 Integral buffers will be    131072 words long.
 Raffenetti 2 integral format.
 Two-electron integral symmetry is turned on.
 Nuclear repulsion after empirical dispersion term =      119.0447153455 Hartrees.
 Standard density basis: Auto (5D, 7F)
   734 Density fitting functions
 There are   734 symmetry adapted density basis functions of A   symmetry.
 One-electron integrals computed using PRISM.
   2 Symmetry operations used in ECPInt.
 ECPInt:  NShTT=    2346 NPrTT=    6892 LenC2=    2340 LenP2D=    5977.
 LDataN:  DoStor=T MaxTD1= 6 Len=  172
 NBasis=   160 RedAO= T EigKep=  4.18D-04  NBF=    83    77
 NBsUse=   160 1.00D-06 EigRej= -1.00D+00 NBFU=    83    77
 NBasis=      160 NBas6D=      180 NTT=       12880   NTT6D=    16290
 NDBShl=      110 NDBF=        734 NDBF6D=      928  NNucDB=        0
 IDenFi=        2 ISolve=        0 FullAP=F BlkAPC=T NucTyp=        0
 TolInv= 1.00D-06 TolIt=  1.00D-10 IR12=0.
 FoFCou: FMM=F IPFlag=           0 FMFlag=           0 FMFlg1=           0
         NFxFlg=           0 DoJE=F BraDBF=T KetDBF=T FulRan=T
         wScrn=  0.000000 ICntrl=       600 IOpCl=  3 I1Cent=           6 NGrid=           0
         NMat0=    1 NMatS0=    928 NMatT0=    0 NMatD0=    1 NMtDS0=    0 NMtDT0=    0
 Petite list used in FoFCou.
 DBF EigKep=  1.28D-06 EigRej=  7.51D-07
 NDBF=    734  NBFD=   734
 NRank=   724 NBFDU=   724
 S*AI*S=  7.30764089601    
 Initial guess from the checkpoint file:  "/home/monty/scratch/Gau-14937.chk"
 B after Tr=     0.000000   -0.000000   -0.000000
         Rot=    1.000000    0.000000    0.000000    0.000273 Ang=   0.03 deg.
 Recovered     1 saved fitting vectors from chk file.
 Initial guess orbital symmetries:
       Occupied  (A) (A) (B) (A) (A) (A) (B) (A) (B) (B) (A) (A)
                 (A) (B) (B) (B)
       Virtual   (B) (A) (B) (A) (B) (A) (B) (A) (A) (B) (A) (A)
                 (B) (A) (B) (B) (B) (A) (A) (B) (B) (A) (B) (A)
                 (A) (B) (A) (B) (A) (B) (A) (B) (B) (A) (B) (A)
                 (A) (A) (B) (A) (B) (B) (A) (B) (A) (B) (A) (A)
                 (B) (A) (B) (A) (B) (A) (A) (B) (B) (A) (A) (B)
                 (B) (A) (B) (A) (B) (A) (B) (A) (B) (B) (A) (A)
                 (A) (A) (B) (A) (B) (B) (B) (B) (A) (A) (B) (A)
                 (B) (B) (B) (A) (A) (B) (B) (A) (A) (B) (A) (B)
                 (A) (B) (A) (A) (B) (B) (A) (B) (A) (A) (B) (A)
                 (B) (A) (A) (B) (A) (B) (A) (B) (A) (B) (B) (B)
                 (A) (B) (A) (A) (A) (B) (B) (A) (B) (B) (A) (A)
                 (B) (A) (A) (A) (B) (B) (B) (A) (B) (A) (A) (A)
 Requested convergence on RMS density matrix=1.00D-08 within 128 cycles.
 Requested convergence on MAX density matrix=1.00D-06.
 Requested convergence on             energy=1.00D-06.
 No special actions if energy rises.
 FoFCou: FMM=F IPFlag=           0 FMFlag=      100000 FMFlg1=           0
         NFxFlg=           0 DoJE=T BraDBF=T KetDBF=F FulRan=T
         wScrn=  0.000000 ICntrl=       500 IOpCl=  0 I1Cent=           5 NGrid=           0
         NMat0=    1 NMatS0=      1 NMatT0=    0 NMatD0=    1 NMtDS0=    0 NMtDT0=    0
 Petite list used in FoFCou.
 SCF Done:  E(RB97D3) =  -193.117258113     A.U. after    8 cycles
            NFock=  8  Conv=0.35D-08     -V/T= 2.0047
   2 Symmetry operations used in ECPInt.
 ECPInt:  NShTT=    2346 NPrTT=    6892 LenC2=    2340 LenP2D=    5977.
 LDataN:  DoStor=T MaxTD1= 7 Len=  274
 Calling FoFJK, ICntrl=      2527 FMM=F ISym2X=1 I1Cent= 4 IOpClX= 0 NMat=1 NMatS=1 NMatT=0.
 ***** Axes restored to original set *****
 -------------------------------------------------------------------
 Center     Atomic                   Forces (Hartrees/Bohr)
 Number     Number              X              Y              Z
 -------------------------------------------------------------------
      1        6          -0.000139999    0.000055937    0.000330299
      2        6          -0.000000000   -0.000000000   -0.000128720
      3        8          -0.000000000    0.000000000    0.000017560
      4        6           0.000139999   -0.000055937    0.000330299
      5        1           0.000059452   -0.000006895   -0.000010924
      6        1           0.000022302   -0.000020699   -0.000114951
      7        1           0.000053194    0.000036445   -0.000148844
      8        1          -0.000053194   -0.000036445   -0.000148844
      9        1          -0.000059452    0.000006895   -0.000010924
     10        1          -0.000022302    0.000020699   -0.000114951
 -------------------------------------------------------------------
 Cartesian Forces:  Max     0.000330299 RMS     0.000110881

 GradGradGradGradGradGradGradGradGradGradGradGradGradGradGradGradGradGrad
 Berny optimization.
 Using GEDIIS/GDIIS optimizer.
 FormGI is forming the generalized inverse of G from B-inverse, IUseBI=4.
 Internal  Forces:  Max     0.000138311 RMS     0.000059625
 Search for a local minimum.
 Step number   5 out of a maximum of   46
 All quantities printed in internal units (Hartrees-Bohrs-Radians)
 Mixed Optimization -- En-DIIS/RFO-DIIS
 Swapping is turned off.
 Update second derivatives using D2CorX and points    1    2    3    4    5
[...]
 ***** Axes restored to original set *****
 -------------------------------------------------------------------
 Center     Atomic                   Forces (Hartrees/Bohr)
 Number     Number              X              Y              Z
 -------------------------------------------------------------------
      1        6           0.000000769   -0.000018156    0.000014424
      2        6          -0.000000000   -0.000000000   -0.000074852
      3        8           0.000000000    0.000000000    0.000043514
      4        6          -0.000000769    0.000018156    0.000014424
      5        1          -0.000001154   -0.000000610   -0.000000314
      6        1           0.000001039    0.000003005    0.000000938
      7        1          -0.000001729    0.000000674    0.000000620
      8        1           0.000001729   -0.000000674    0.000000620
      9        1           0.000001153    0.000000610   -0.000000314
     10        1          -0.000001039   -0.000003005    0.000000938
 -------------------------------------------------------------------
 Cartesian Forces:  Max     0.000074852 RMS     0.000016937
 FormGI is forming the generalized inverse of G from B-inverse, IUseBI=4.

 GradGradGradGradGradGradGradGradGradGradGradGradGradGradGradGradGradGrad
 Berny optimization.
 Internal  Forces:  Max     0.000043514 RMS     0.000009319
 Search for a local minimum.
 Step number   1 out of a maximum of    2
 All quantities printed in internal units (Hartrees-Bohrs-Radians)
 Second derivative matrix not updated -- analytic derivatives used.
 ITU=  0
     Eigenvalues ---    0.00007   0.00107   0.02719   0.05023   0.05141
     Eigenvalues ---    0.05238   0.05506   0.11359   0.11533   0.11828
     Eigenvalues ---    0.12177   0.12315   0.13213   0.20072   0.20196
     Eigenvalues ---    0.27999   0.28560   0.32126   0.32307   0.32868
     Eigenvalues ---    0.32887   0.33782   0.33926   0.79770
 Angle between quadratic step and forces=  85.09 degrees.
 Linear search not attempted -- first point.
 Iteration  1 RMS(Cart)=  0.00052760 RMS(Int)=  0.00000016
 Iteration  2 RMS(Cart)=  0.00000017 RMS(Int)=  0.00000000
 ClnCor:  largest displacement from symmetrization is 7.30D-09 for atom     9.
 Variable       Old X    -DE/DX   Delta X   Delta X   Delta X     New X
                                 (Linear)    (Quad)   (Total)
    R1        2.87096  -0.00002   0.00000  -0.00011  -0.00011   2.87085
    R2        2.06260  -0.00000   0.00000  -0.00000  -0.00000   2.06259
    R3        2.07318  -0.00000   0.00000   0.00000   0.00000   2.07319
    R4        2.07445  -0.00000   0.00000  -0.00001  -0.00001   2.07445
    R5        2.29631   0.00004   0.00000   0.00008   0.00008   2.29639
    R6        2.87096  -0.00002   0.00000  -0.00011  -0.00011   2.87085
    R7        2.07445  -0.00000   0.00000  -0.00001  -0.00001   2.07445
    R8        2.06260  -0.00000   0.00000  -0.00000  -0.00000   2.06259
    R9        2.07318  -0.00000   0.00000   0.00000   0.00000   2.07319
    A1        1.92463  -0.00000   0.00000  -0.00002  -0.00002   1.92461
    A2        1.92879   0.00000   0.00000  -0.00001  -0.00001   1.92878
    A3        1.91492   0.00000   0.00000   0.00008   0.00008   1.91501
    A4        1.92052  -0.00000   0.00000  -0.00006  -0.00006   1.92045
    A5        1.91206  -0.00000   0.00000   0.00003   0.00003   1.91209
    A6        1.86191  -0.00000   0.00000  -0.00002  -0.00002   1.86188
    A7        2.12879  -0.00001   0.00000  -0.00005  -0.00005   2.12874
    A8        2.02560   0.00001   0.00000   0.00011   0.00011   2.02571
    A9        2.12879  -0.00001   0.00000  -0.00005  -0.00005   2.12874
   A10        1.91492   0.00000   0.00000   0.00008   0.00008   1.91501
   A11        1.92463  -0.00000   0.00000  -0.00002  -0.00002   1.92461
   A12        1.92879   0.00000   0.00000  -0.00001  -0.00001   1.92878
   A13        1.91206  -0.00000   0.00000   0.00003   0.00003   1.91209
   A14        1.86191  -0.00000   0.00000  -0.00002  -0.00002   1.86188
   A15        1.92052  -0.00000   0.00000  -0.00006  -0.00006   1.92045
    D1       -0.07435  -0.00000   0.00000   0.00061   0.00061  -0.07374
    D2        3.06724  -0.00000   0.00000   0.00061   0.00061   3.06786
    D3       -2.20160   0.00000   0.00000   0.00071   0.00071  -2.20089
    D4        0.94000   0.00000   0.00000   0.00071   0.00071   0.94071
    D5        2.03324  -0.00000   0.00000   0.00069   0.00069   2.03393
    D6       -1.10835  -0.00000   0.00000   0.00069   0.00069  -1.10766
    D7       -1.10835  -0.00000   0.00000   0.00069   0.00069  -1.10766
    D8        3.06724  -0.00000   0.00000   0.00061   0.00061   3.06786
    D9        0.94000   0.00000   0.00000   0.00071   0.00071   0.94071
   D10        2.03324  -0.00000   0.00000   0.00069   0.00069   2.03393
   D11       -0.07435  -0.00000   0.00000   0.00061   0.00061  -0.07374
   D12       -2.20160   0.00000   0.00000   0.00071   0.00071  -2.20089
         Item               Value     Threshold  Converged?
 Maximum Force            0.000044     0.000450     YES
 RMS     Force            0.000009     0.000300     YES
 Maximum Displacement     0.001058     0.001800     YES
 RMS     Displacement     0.000528     0.001200     YES
 Predicted change in Energy=-5.604205D-09
 Optimization completed.
    -- Stationary point found.
                           ----------------------------
                           !   Optimized Parameters   !
                           ! (Angstroms and Degrees)  !
 --------------------------                            --------------------------
 ! Name  Definition              Value          Derivative Info.                !
 --------------------------------------------------------------------------------
 ! R1    R(1,2)                  1.5192         -DE/DX =    0.0                 !
 ! R2    R(1,5)                  1.0915         -DE/DX =    0.0                 !
 ! R3    R(1,6)                  1.0971         -DE/DX =    0.0                 !
 ! R4    R(1,7)                  1.0978         -DE/DX =    0.0                 !
 ! R5    R(2,3)                  1.2152         -DE/DX =    0.0                 !
 ! R6    R(2,4)                  1.5192         -DE/DX =    0.0                 !
 ! R7    R(4,8)                  1.0978         -DE/DX =    0.0                 !
 ! R8    R(4,9)                  1.0915         -DE/DX =    0.0                 !
 ! R9    R(4,10)                 1.0971         -DE/DX =    0.0                 !
 ! A1    A(2,1,5)              110.2732         -DE/DX =    0.0                 !
 ! A2    A(2,1,6)              110.5114         -DE/DX =    0.0                 !
 ! A3    A(2,1,7)              109.717          -DE/DX =    0.0                 !
 ! A4    A(5,1,6)              110.0375         -DE/DX =    0.0                 !
 ! A5    A(5,1,7)              109.5532         -DE/DX =    0.0                 !
 ! A6    A(6,1,7)              106.6793         -DE/DX =    0.0                 !
 ! A7    A(1,2,3)              121.9707         -DE/DX =    0.0                 !
 ! A8    A(1,2,4)              116.0585         -DE/DX =    0.0                 !
 ! A9    A(3,2,4)              121.9707         -DE/DX =    0.0                 !
 ! A10   A(2,4,8)              109.717          -DE/DX =    0.0                 !
 ! A11   A(2,4,9)              110.2732         -DE/DX =    0.0                 !
 ! A12   A(2,4,10)             110.5114         -DE/DX =    0.0                 !
 ! A13   A(8,4,9)              109.5532         -DE/DX =    0.0                 !
 ! A14   A(8,4,10)             106.6793         -DE/DX =    0.0                 !
 ! A15   A(9,4,10)             110.0375         -DE/DX =    0.0                 !
 ! D1    D(5,1,2,3)             -4.2599         -DE/DX =    0.0                 !
 ! D2    D(5,1,2,4)            175.7401         -DE/DX =    0.0                 !
 ! D3    D(6,1,2,3)           -126.1421         -DE/DX =    0.0                 !
 ! D4    D(6,1,2,4)             53.8579         -DE/DX =    0.0                 !
 ! D5    D(7,1,2,3)            116.4963         -DE/DX =    0.0                 !
 ! D6    D(7,1,2,4)            -63.5037         -DE/DX =    0.0                 !
 ! D7    D(1,2,4,8)            -63.5037         -DE/DX =    0.0                 !
 ! D8    D(1,2,4,9)            175.7401         -DE/DX =    0.0                 !
 ! D9    D(1,2,4,10)            53.8579         -DE/DX =    0.0                 !
 ! D10   D(3,2,4,8)            116.4963         -DE/DX =    0.0                 !
 ! D11   D(3,2,4,9)             -4.2599         -DE/DX =    0.0                 !
 ! D12   D(3,2,4,10)          -126.1421         -DE/DX =    0.0                 !
 --------------------------------------------------------------------------------
 GradGradGradGradGradGradGradGradGradGradGradGradGradGradGradGradGradGrad


 ----------------------------------------------------------------------

 Electric dipole moment (input orientation):
 (Debye = 10**-18 statcoulomb cm , SI units = C m)
                  (au)            (Debye)         (10**-30 SI)
   Tot        0.114216D+01      0.290308D+01      0.968364D+01
   x          0.000000D+00      0.000000D+00      0.000000D+00
   y          0.000000D+00      0.000000D+00      0.000000D+00
   z         -0.114216D+01     -0.290308D+01     -0.968364D+01

 Dipole polarizability, Alpha (input orientation).
 (esu units = cm**3 , SI units = C**2 m**2 J**-1)
 Alpha(0;0):
               (au)            (10**-24 esu)      (10**-40 SI)
   iso        0.411559D+02      0.609867D+01      0.678569D+01
   aniso      0.127448D+02      0.188858D+01      0.210133D+01
   xx         0.326706D+02      0.484128D+01      0.538665D+01
   yx        -0.667302D-01     -0.988840D-02     -0.110023D-01
   yy         0.450260D+02      0.667217D+01      0.742379D+01
   zx         0.000000D+00      0.000000D+00      0.000000D+00
   zy         0.000000D+00      0.000000D+00      0.000000D+00
   zz         0.457710D+02      0.678256D+01      0.754661D+01

 ----------------------------------------------------------------------

 Dipole orientation:
     6         -0.02904036         -2.43531609          1.16368507
     6         -0.00000000          0.00000000         -0.35644880
     8         -0.00000000         -0.00000000         -2.65276066
     6          0.02904036          2.43531609          1.16368507
     1         -0.19216076         -4.06139625         -0.09471153
     1         -1.59711841         -2.42648160          2.51983512
     1          1.71696802         -2.58854965          2.27334156
     1         -1.71696802          2.58854965          2.27334156
     1          0.19216076          4.06139625         -0.09471153
     1          1.59711841          2.42648160          2.51983512

 Electric dipole moment (dipole orientation):
 (Debye = 10**-18 statcoulomb cm , SI units = C m)
                  (au)            (Debye)         (10**-30 SI)
   Tot        0.114216D+01      0.290308D+01      0.968364D+01
   x          0.000000D+00      0.000000D+00      0.000000D+00
   y          0.000000D+00      0.000000D+00      0.000000D+00
   z          0.114216D+01      0.290308D+01      0.968364D+01

 Dipole polarizability, Alpha (dipole orientation).
 (esu units = cm**3 , SI units = C**2 m**2 J**-1)
 Alpha(0;0):
               (au)            (10**-24 esu)      (10**-40 SI)
   iso        0.411559D+02      0.609867D+01      0.678569D+01
   aniso      0.127448D+02      0.188858D+01      0.210133D+01
   xx         0.326706D+02      0.484128D+01      0.538665D+01
   yx         0.667302D-01      0.988840D-02      0.110023D-01
   yy         0.450260D+02      0.667217D+01      0.742379D+01
   zx         0.000000D+00      0.000000D+00      0.000000D+00
   zy         0.000000D+00      0.000000D+00      0.000000D+00
   zz         0.457710D+02      0.678256D+01      0.754661D+01

 ----------------------------------------------------------------------
 Unable to Open any file for archive entry.
 1\1\GINC-THL14\Freq\RB97D3\def2TZVP/Auto\C3H6O1\MONTY\29-Dec-2023\0\\#
 N Geom=AllCheck Guess=TCheck SCRF=Check GenChk RB97D3/def2TZVP/Auto Fr
 eq\\aceton C2\\0,1\C,-0.0153674945,1.2887137787,-0.6157956187\C,0.,0.,
 0.1886245815\O,0.,0.,1.4037804856\C,0.0153674945,-1.2887137787,-0.6157
 956187\H,-0.1016870973,2.1491983416,0.0501191853\H,-0.8451586666,1.284
 0387652,-1.3334393225\H,0.9085803459,1.3698014844,-1.2030005477\H,-0.9
 085803459,-1.3698014844,-1.2030005477\H,0.1016870973,-2.1491983416,0.0
 501191853\H,0.8451586666,-1.2840387652,-1.3334393225\\Version=ES64L-G1
 6RevC.01\State=1-A\HF=-193.1172627\RMSD=4.771e-09\RMSF=1.694e-05\ZeroP
 oint=0.0815975\Thermal=0.0870922\ETot=-193.0301704\HTot=-193.0292263\G
 Tot=-193.0637825\Dipole=0.,0.,-1.1421602\DipoleDeriv=0.1027435,-0.0141
 111,0.0166685,-0.0030211,-0.2974403,0.2128617,0.0057313,0.2063516,-0.1
 129478,0.0611259,-0.0075943,0.,-0.0004538,1.1405084,0.,0.,0.,1.2147795
 ,-0.2889528,0.0065371,0.,0.0030973,-0.5820437,0.,0.,0.,-1.0818764,0.10
 27435,-0.0141111,-0.0166685,-0.0030211,-0.2974403,-0.2128617,-0.005731
 3,-0.2063516,-0.1129478,0.0782585,0.0151701,0.0032819,0.0093089,-0.065
 775,-0.0368968,0.0090212,-0.0904436,0.0003101,-0.0223287,0.0104997,-0.
 1093999,-0.0409023,0.0402372,-0.0008819,-0.0799139,-0.0026062,0.00955,
 -0.0447599,-0.0110301,0.0917702,0.0332928,0.0437457,0.0138164,0.069191
 4,0.0048118,0.0366362,-0.0447599,-0.0110301,-0.0917702,0.0332928,0.043
 7457,-0.0138164,-0.0691914,-0.0048118,0.0366362,0.0782585,0.0151701,-0
 .0032819,0.0093089,-0.065775,0.0368967,-0.0090212,0.0904436,0.0003101,
 -0.0223287,0.0104997,0.1093999,-0.0409023,0.0402372,0.0008819,0.079913
 9,0.0026062,0.00955\Polar=32.670596,-0.0667302,45.0260434,0.,0.,45.770
 9786\Quadrupole=1.0563137,1.3403073,-2.396621,0.0258963,0.,0.\PG=C02 [
 C2(C1O1),X(C2H6)]\NImag=0\\0.49534906,-0.00401677,0.48107460,0.0004028
 2,0.07517588,0.52252518,-0.08347092,0.00106872,-0.00121368,0.23354521,
 0.00232780,-0.16028217,0.02110663,-0.00319762,0.46077580,-0.00149790,0
 .02154266,-0.08122147,0.,0.,0.87995042,0.02478040,0.00054645,0.0004044
 2,-0.06691569,0.00108471,0.,0.02233796,0.00055593,0.00797331,0.0387896
 4,0.00087972,-0.10673188,0.,-0.00138270,0.09337517,0.00021412,0.020895
 93,-0.04867001,0.,0.,-0.68532446,0.,0.,0.78360936,0.01608790,0.0007016
 8,0.00087668,-0.08347092,0.00232780,0.00149791,0.02478040,0.00055593,-
 0.00021413,0.49534906,0.00070168,-0.02470600,-0.01188801,0.00106872,-0
 .16028217,-0.02154266,0.00054645,0.00797331,-0.02089593,-0.00401677,0.
 48107460,-0.00087668,0.01188801,0.01408440,0.00121368,-0.02110663,-0.0
 8122147,-0.00040442,-0.03878964,-0.04867001,-0.00040282,-0.07517588,0.
 52252518,-0.04702118,0.01711864,0.01240727,-0.00140915,-0.00055819,0.0
 0053793,-0.00109914,-0.00008046,-0.00034864,0.00105324,-0.00009430,0.0
 0027637,0.04590572,0.01700396,-0.20731254,-0.12724817,0.00226821,-0.02
 439512,-0.02146654,-0.00045396,0.00539018,-0.00005911,0.00009679,-0.00
 329273,0.00508141,-0.01829793,0.22588965,0.01276151,-0.13125824,-0.147
 38691,-0.00168932,0.01508713,0.01111275,0.00009859,-0.00107679,0.00161
 319,0.00013398,0.00237053,-0.00177319,-0.01424826,0.13934489,0.1558691
 0,-0.18588841,-0.00024540,-0.12771668,0.00039480,-0.00145301,0.0010623
 4,-0.00059659,0.00007835,0.00113299,-0.00028521,-0.00008317,0.00006120
 ,0.00273478,-0.00048829,0.00339055,0.20375284,0.00193124,-0.04646812,-
 0.00269919,0.02398042,0.00552984,0.01556357,-0.00351270,-0.00383513,0.
 00365641,-0.00258814,-0.00031852,-0.00146501,-0.01948143,0.00127358,-0
 .01398452,0.00176578,0.04510708,-0.13043676,-0.00417871,-0.14752016,-0
 .01255504,-0.00250217,-0.01436902,0.00184650,0.00486379,-0.00111219,0.
 00071207,-0.00054032,0.00022039,-0.01365229,0.00189730,-0.01075247,0.1
 3993141,0.00101516,0.16165387,-0.22005006,-0.01500033,0.11560584,0.001
 17050,0.00073985,-0.00033114,-0.00079581,-0.00030233,-0.00139407,-0.00
 055481,0.00000449,0.00042910,-0.00118273,-0.00004801,-0.00047159,-0.02
 073463,-0.00205688,0.01334666,0.24127320,-0.01858892,-0.04634674,0.009
 09019,-0.02615840,0.00212549,0.01258318,0.00356921,-0.00285001,0.00272
 226,0.00257642,-0.00032109,-0.00128942,0.02127028,0.00311560,-0.011481
 14,0.00024934,-0.00041509,-0.00047607,0.01663407,0.04559695,0.11908069
 ,0.00731177,-0.11009130,0.01502665,-0.00022964,-0.01283525,-0.00287801
 ,0.00398227,-0.00097343,-0.00119826,-0.00045291,-0.00016692,0.01521313
 ,0.00314155,-0.00910659,-0.01801616,-0.00216406,0.01120421,-0.12680602
 ,-0.01121626,0.12119294,-0.00055481,0.00000449,-0.00042910,0.00117050,
 0.00073985,0.00033114,-0.00079581,-0.00030233,0.00139407,-0.22005006,-
 0.01500033,-0.11560584,0.00025183,-0.00013746,0.00012728,0.00060038,0.
 00011807,0.00029642,0.00002213,0.00004853,-0.00004491,0.24127320,0.002
 57642,-0.00032109,0.00128942,-0.02615840,0.00212549,-0.01258318,0.0035
 6921,-0.00285001,-0.00272226,-0.01858892,-0.04634674,-0.00909019,0.000
 42473,0.00031968,0.00010392,-0.00002525,-0.00155113,0.00022821,0.00004
 853,0.00032634,-0.00039939,0.01663407,0.04559695,0.00119826,0.00045291
 ,-0.00016692,-0.01502665,0.00022964,-0.01283525,0.00287801,-0.00398227
 ,-0.00097343,-0.11908069,-0.00731177,-0.11009130,0.00026023,0.00007345
 ,-0.00005523,0.00011688,-0.00010011,0.00070833,0.00004491,0.00039939,0
 .00012324,0.12680602,0.01121626,0.12119294,0.00105324,-0.00009430,-0.0
 0027637,-0.00140915,-0.00055819,-0.00053793,-0.00109914,-0.00008046,0.
 00034864,-0.04702118,0.01711864,-0.01240727,0.00056743,-0.00005969,0.0
 0004242,0.00019919,-0.00024164,0.00040332,0.00025183,0.00042473,-0.000
 26023,-0.00118273,0.02127028,-0.01521313,0.04590572,0.00009679,-0.0032
 9273,-0.00508141,0.00226821,-0.02439512,0.02146654,-0.00045396,0.00539
 018,0.00005911,0.01700396,-0.20731254,0.12724817,-0.00005969,-0.001541
 96,0.00088462,0.00011637,0.00055366,-0.00011984,-0.00013746,0.00031968
 ,-0.00007345,-0.00004801,0.00311560,-0.00314155,-0.01829793,0.22588965
 ,-0.00013398,-0.00237053,-0.00177319,0.00168932,-0.01508713,0.01111275
 ,-0.00009859,0.00107679,0.00161319,-0.01276151,0.13125824,-0.14738691,
 -0.00004242,-0.00088462,0.00054536,0.00014517,-0.00000960,-0.00006602,
 -0.00012728,-0.00010392,-0.00005523,0.00047159,0.01148114,-0.00910659,
 0.01424826,-0.13934489,0.15586910,-0.00028521,-0.00008317,-0.00006120,
 0.00039480,-0.00145300,-0.00106234,-0.00059659,0.00007835,-0.00113299,
 -0.18588841,-0.00024540,0.12771668,0.00019919,0.00011637,-0.00014517,-
 0.00017714,0.00008529,0.00010770,0.00060038,-0.00002525,-0.00011688,-0
 .02073463,0.00024934,0.01801616,0.00273478,-0.00048829,-0.00339055,0.2
 0375284,-0.00258814,-0.00031852,0.00146501,0.02398042,0.00552984,-0.01
 556357,-0.00351270,-0.00383513,-0.00365641,0.00193124,-0.04646812,0.00
 269919,-0.00024164,0.00055366,0.00000960,0.00008529,0.00012381,-0.0001
 8735,0.00011807,-0.00155113,0.00010011,-0.00205688,-0.00041509,0.00216
 406,-0.01948143,0.00127358,0.01398452,0.00176578,0.04510708,-0.0007120
 7,0.00054032,0.00022039,0.01255504,0.00250217,-0.01436902,-0.00184650,
 -0.00486379,-0.00111219,0.13043676,0.00417871,-0.14752016,-0.00040332,
 0.00011984,-0.00006602,-0.00010770,0.00018735,0.00003306,-0.00029642,-
 0.00022821,0.00070833,-0.01334666,0.00047607,0.01120421,0.01365229,-0.
 00189730,-0.01075247,-0.13993141,-0.00101516,0.16165387\\-0.00000077,0
 .00001816,-0.00001442,0.,0.,0.00007485,0.,0.,-0.00004351,0.00000077,-0
 .00001816,-0.00001442,0.00000115,0.00000061,0.00000031,-0.00000104,-0.
 00000300,-0.00000094,0.00000173,-0.00000067,-0.00000062,-0.00000173,0.
 00000067,-0.00000062,-0.00000115,-0.00000061,0.00000031,0.00000104,0.0
 0000300,-0.00000094\\\@
 The archive entry for this job was punched.


 DEPRESSION IS WAITING FOR YOUR SHIP TO COME IN,
 AND FINDING OUT IT'S THE TITANIC.
 Job cpu time:       0 days  0 hours  5 minutes 54.0 seconds.
 Elapsed time:       0 days  0 hours  1 minutes 31.8 seconds.
 File lengths (MBytes):  RWF=     26 Int=      0 D2E=      0 Chk=      7 Scr=      1
 Normal termination of Gaussian 16 at Fri Dec 29 10:51:48 2023.
